LAMMPS protain data file

        8634  atoms
       11502  bonds
           0  angles
           0  dihedrals
           0  impropers

           5  atom types
           5  bond types
           0  angle types
           0  dihedral types
           0  improper types

-200.0	200.0	xlo xhi
-200.0	200.0	ylo yhi
-200.0	200.0	zlo zhi

Masses

           1	27.0
           2	14.0
           3	28.0
           4	60.0
           5	60.0

Atoms

           1	1	1	1	0.0	71.73	132.36	109.35
           2	1	1	3	0.0	70.73	133.56	107.55
           3	1	1	4	0.0	70.82	132.11	110.65
           4	1	2	1	0.0	69.29	131.46	106.62
           5	1	2	3	0.0	67.98	129.62	107.37
           6	1	2	4	0.0	69.87	130.72	105.42
           7	1	3	1	0.0	65.52	131.29	107.58001
           8	1	3	3	0.0	65.22	129.58	105.810005
           9	1	3	4	0.0	64.56	132.56	107.36
          10	1	4	1	0.0	63.39	128.05	107.07
          11	1	4	3	0.0	63.05	127.24	104.73999
          12	1	4	4	0.0	62.41	127.47	108.15001
          13	1	5	1	0.0	61.34	129.52	104.21999
          14	1	5	3	0.0	62.34	129.4	102.05001
          15	1	5	4	0.0	60.31	130.57	104.670006
          16	1	6	1	0.0	64.44	131.12	102.62
          17	1	6	3	0.0	65.91	130.01	101.08
          18	1	6	4	0.0	65.27	132.39	103.04
          19	1	7	1	0.0	66.75	128.08	102.89001
          20	1	7	3	0.0	67.19	126.61	101.05999
          21	1	7	4	0.0	67.16	127.38	104.26
          22	1	8	1	0.0	64.47	125.72	100.979996
          23	1	8	3	0.0	64.67	125.77	98.67
          24	1	8	4	0.0	63.01	125.33	101.240005
          25	1	9	1	0.0	63.71	128.56	98.380005
          26	1	9	3	0.0	65.16	128.39	96.51
          27	1	9	4	0.0	63.14	129.94	98.88
          28	1	10	1	0.0	67.41	129.17	97.82
          29	1	10	3	0.0	68.59	127.77	96.25
          30	1	10	4	0.0	68.41	129.64	98.92
          31	1	11	1	0.0	67.94	125.38	97.52
          32	1	11	3	0.0	67.85	124.51	95.36
          33	1	11	4	0.0	67.75	124.350006	98.700005
          34	1	12	1	0.0	65.03	125.17999	95.01001
          35	1	12	3	0.0	65.66	125.30999	92.75
          36	1	12	4	0.0	63.570004	125.45	95.36
          37	1	13	1	0.0	66.46	128.0	92.95
          38	1	13	3	0.0	67.94	127.35	91.19
          39	1	13	4	0.0	66.52	129.44	93.51
          40	1	14	1	0.0	69.98	126.38999	93.01
          41	1	14	3	0.0	70.44	125.05999	91.05
          42	1	14	4	0.0	70.66	126.00001	94.31
          43	1	15	1	0.0	68.45	123.18	91.62
          44	1	15	3	0.0	68.2	122.98	89.19
          45	1	15	4	0.0	67.45	122.27	92.34
          46	1	16	1	0.0	66.56	125.16001	88.84
          47	1	16	3	0.0	67.81	125.21	86.79
          48	1	16	4	0.0	65.55	126.26	88.979996
          49	1	17	1	0.0	69.96	126.68	87.96999
          50	1	17	3	0.0	71.31	125.45	86.46
          51	1	17	4	0.0	70.59	127.6	88.95
          52	1	18	1	0.0	71.52	123.18	88.06
          53	1	18	3	0.0	71.58	121.99	86.12001
          54	1	18	4	0.0	71.63	122.25001	89.27
          55	1	19	1	0.0	68.8	121.71	85.82
          56	1	19	3	0.0	69.27	121.89	83.44
          57	1	19	4	0.0	67.37	121.71	86.14
          58	1	20	1	0.0	69.78	124.71	83.49
          59	1	20	3	0.0	71.61	124.47001	81.9
          60	1	20	4	0.0	69.39	126.19999	83.69
          61	1	21	1	0.0	73.51	123.82	83.82
          62	1	21	3	0.0	74.28	122.439995	82.05
          63	1	21	4	0.0	74.34	123.84999	85.1
          64	1	22	1	0.0	72.62	120.21999	82.82
          65	1	22	3	0.0	72.48	119.63	80.55
          66	1	22	4	0.0	71.91	119.17	83.7
          67	1	23	1	0.0	70.51	121.49999	79.92
          68	1	23	3	0.0	71.63	121.96	77.84
          69	1	23	4	0.0	69.27	122.41	80.0
          70	1	24	1	0.0	73.6	123.63	78.76
          71	1	24	3	0.0	74.87	122.31999	77.15
          72	1	24	5	0.0	72.44	116.93250766	73.31553999
          73	1	25	1	0.0	75.49	120.32	78.76
          74	1	25	3	0.0	75.34	118.95999	76.78
          75	1	25	4	0.0	75.85	119.31	79.9
          76	1	26	1	0.0	72.53	118.62	76.77
          77	1	26	3	0.0	72.72	118.65	74.42
          78	1	26	4	0.0	71.12	118.27	77.25
          79	1	27	1	0.0	72.6	121.48001	74.27
          80	1	27	3	0.0	74.06	121.19	72.32
          81	1	27	4	0.0	72.42	122.91	74.57
          82	1	28	1	0.0	76.45	120.78	73.7
          83	1	28	3	0.0	76.57	119.27999	71.75
          84	1	28	4	0.0	77.61	120.82	74.69
          85	1	29	1	0.0	75.6	117.01	73.18
          86	1	29	3	0.0	74.86	115.98	71.15
          87	1	29	4	0.0	75.19	116.15001	74.38
          88	1	30	1	0.0	72.47	117.32	71.11
          89	1	30	3	0.0	72.4	117.86	68.69
          90	1	30	4	0.0	71.09	117.66	71.73
          91	1	31	1	0.0	73.97	120.19	68.87
          92	1	31	3	0.0	75.25	119.83001	66.79
          93	1	31	4	0.0	74.5	121.54	69.38
          94	1	32	1	0.0	76.97	117.94	67.85
          95	1	32	3	0.0	75.56	116.46	66.52
          96	1	32	4	0.0	77.76	117.13	68.88
          97	1	33	1	0.0	77.13	116.59	64.16
          98	1	33	3	0.0	79.01	115.270004	64.58
          99	1	33	4	0.0	77.64	117.47	62.939995
         100	1	34	1	0.0	77.67	112.9	63.62
         101	1	34	3	0.0	78.14	111.20999	62.15
         102	1	34	4	0.0	76.6	112.01	64.23
         103	1	35	1	0.0	78.7	112.920006	59.91
         104	1	35	3	0.0	80.93	112.31	60.79
         105	1	35	4	0.0	78.95	114.16	59.060005
         106	1	36	1	0.0	81.42	110.47	58.6
         107	1	36	3	0.0	83.05	112.21	58.56
         108	1	36	4	0.0	81.33	110.00001	57.190002
         109	1	37	1	0.0	84.97	110.74	59.97
         110	1	37	3	0.0	85.63	112.27	61.730003
         111	1	37	4	0.0	85.89	111.61	58.97
         112	1	38	1	0.0	83.33	111.71001	63.4
         113	1	38	3	0.0	84.36	112.670006	65.27
         114	1	38	4	0.0	81.84	111.15	63.74
         115	1	39	1	0.0	86.14	110.8	65.83
         116	1	39	3	0.0	88.55	111.44	65.95
         117	1	39	4	0.0	86.450005	109.42999	66.38
         118	1	40	1	0.0	88.53	112.7	63.43
         119	1	40	3	0.0	88.64	114.8	62.360004
         120	1	40	4	0.0	88.93	112.03001	62.049995
         121	1	41	1	0.0	87.37	116.16	64.46
         122	1	41	3	0.0	86.88	115.43	66.69
         123	1	41	4	0.0	86.23	116.46	63.510002
         124	1	42	1	0.0	86.95999	118.16	67.68
         125	1	42	3	0.0	85.59	117.69	69.65
         126	1	42	4	0.0	87.1	119.63	67.75
         127	1	43	1	0.0	83.14	117.93001	68.26
         128	1	43	3	0.0	82.2	116.75	70.17
         129	1	43	4	0.0	82.09	117.92	67.19
         130	1	44	1	0.0	83.28	114.33	69.45
         131	1	44	3	0.0	83.36	114.12001	71.86
         132	1	44	4	0.0	83.85	113.10999	68.65
         133	1	45	1	0.0	85.85	115.11	72.16
         134	1	45	3	0.0	85.26	115.94	74.26
         135	1	45	4	0.0	87.329994	115.41	71.89
         136	1	46	1	0.0	84.09	118.189995	73.32
         137	1	46	3	0.0	82.39	118.09	75.03
         138	1	46	4	0.0	84.12	119.52	72.51
         139	1	47	1	0.0	80.86	116.15001	73.53
         140	1	47	3	0.0	80.58	114.98	75.61
         141	1	47	4	0.0	80.03	115.38	72.43
         142	1	48	1	0.0	82.92	113.7	75.58
         143	1	48	3	0.0	82.56	113.80001	77.93
         144	1	48	4	0.0	84.22	113.04001	75.11
         145	1	49	1	0.0	83.79	116.36	78.04
         146	1	49	3	0.0	82.3	116.81	79.93
         147	1	49	4	0.0	84.59	117.64	77.65
         148	1	50	1	0.0	80.09	117.51	78.25
         149	1	50	3	0.0	78.4	116.62	79.63
         150	1	50	4	0.0	79.3	118.11	77.0
         151	1	51	1	0.0	78.71	113.99999	78.9
         152	1	51	3	0.0	78.41	113.44	81.18
         153	1	51	4	0.0	78.87	112.670006	78.11
         154	1	52	1	0.0	81.21	113.85	81.84
         155	1	52	3	0.0	80.36	114.55	83.95
         156	1	52	4	0.0	82.76	113.82	81.55
         157	1	53	1	0.0	80.22	117.39	82.94
         158	1	53	3	0.0	78.22	117.71	84.23
         159	1	53	4	0.0	80.45	118.55	81.98
         160	1	54	1	0.0	76.6	116.07	82.77
         161	1	54	3	0.0	75.73	115.08999	84.84
         162	1	54	4	0.0	75.75	115.649994	81.56
         163	1	55	1	0.0	77.47	112.95	85.09
         164	1	55	3	0.0	77.47	113.33	87.47
         165	1	55	4	0.0	78.41	111.75	84.83
         166	1	56	1	0.0	79.43	115.15	87.48
         167	1	56	3	0.0	78.2	116.48	89.03
         168	1	56	4	0.0	80.87	115.81	87.25
         169	1	57	1	0.0	76.45	117.51	87.26001
         170	1	57	3	0.0	74.7	117.299995	88.88
         171	1	57	5	0.0	77.65	111.23215538	81.64066108
         172	1	58	1	0.0	74.28	114.51999	88.39
         173	1	58	3	0.0	74.17	114.25001	90.759995
         174	1	58	4	0.0	74.05	113.26	87.51
         175	1	59	1	0.0	76.96	113.89	91.1
         176	1	59	3	0.0	76.76	114.95	93.29
         177	1	59	4	0.0	78.39	113.35	90.81
         178	1	60	1	0.0	77.14	117.54	92.31
         179	1	60	3	0.0	75.66	118.380005	94.00001
         180	1	60	4	0.0	77.47	118.59	91.31
         181	1	61	1	0.0	73.29	117.94999	92.48
         182	1	61	3	0.0	72.35	118.38999	94.68
         183	1	61	4	0.0	72.26	117.37	91.47
         184	1	62	1	0.0	72.62	116.02	95.91
         185	1	62	3	0.0	73.35	117.05	98.02
         186	1	62	4	0.0	72.5	114.50001	96.14
         187	1	63	1	0.0	75.93	117.2	97.33
         188	1	63	3	0.0	75.82	119.12	98.8
         189	1	63	4	0.0	77.44	116.93	96.79001
         190	1	64	1	0.0	75.07	120.8	96.73999
         191	1	64	3	0.0	73.68	121.87999	98.34
         192	1	64	4	0.0	74.79	121.51	95.38
         193	1	65	1	0.0	71.5	120.38	98.03
         194	1	65	3	0.0	71.27	120.94	100.28999
         195	1	65	4	0.0	70.3	119.58001	97.46
         196	1	66	1	0.0	72.69	118.509995	101.22
         197	1	66	3	0.0	73.17	119.88	103.12
         198	1	66	4	0.0	73.5	117.21	101.14
         199	1	67	1	0.0	75.2	121.32	101.80001
         200	1	67	3	0.0	74.59	123.18	103.23
         201	1	67	4	0.0	76.3	121.76	100.95
         202	1	68	1	0.0	72.56	124.09999	101.59
         203	1	68	3	0.0	71.18	124.55	103.58001
         204	1	68	4	0.0	71.78	124.61	100.38
         205	1	69	1	0.0	69.73	122.31	103.52
         206	1	69	3	0.0	69.24	122.26	105.91
         207	1	69	4	0.0	68.83	121.16001	102.95999
         208	1	70	1	0.0	71.49	120.81	106.47
         209	1	70	3	0.0	73.78	121.619995	106.23
         210	1	70	4	0.0	71.43	119.2	106.33
         211	1	71	1	0.0	74.48	121.36001	108.979996
         212	1	71	3	0.0	75.9	120.23	107.49
         213	1	71	5	0.0	73.22	114.57153529	102.87030476
         214	1	72	1	0.0	76.73	118.33	109.27
         215	1	72	3	0.0	75.32	116.38	109.80001
         216	1	72	4	0.0	77.64	117.98	110.47
         217	1	73	1	0.0	75.48	115.44	107.2
         218	1	73	3	0.0	76.14	113.51	105.84
         219	1	73	4	0.0	74.21	115.68	106.4
         220	1	74	1	0.0	78.74	114.189995	105.560005
         221	1	74	3	0.0	78.34	112.34	104.18
         222	1	74	4	0.0	80.09	114.87	105.91
         223	1	75	1	0.0	78.57	113.58	101.74
         224	1	75	3	0.0	79.0	111.35	100.82
         225	1	75	4	0.0	78.54	114.78	100.77
         226	1	76	1	0.0	81.61	111.76	100.21999
         227	1	76	3	0.0	83.59	112.23	101.51
         228	1	76	4	0.0	82.07	112.43	98.89001
         229	1	77	1	0.0	84.44	109.6	101.7
         230	1	77	3	0.0	85.71	110.33	99.8
         231	1	77	4	0.0	84.39	108.16	101.44
         232	1	78	1	0.0	87.98	110.87	101.34
         233	1	78	3	0.0	89.16001	111.1	99.2
         234	1	78	4	0.0	89.03	110.69001	102.43
         235	1	79	1	0.0	89.240005	108.53999	98.46
         236	1	79	3	0.0	88.78	108.89	96.13
         237	1	79	4	0.0	89.65	107.079994	98.50001
         238	1	80	1	0.0	86.01	109.12	96.48
         239	1	80	3	0.0	85.64	111.079994	95.19
         240	1	80	4	0.0	84.68	108.45	96.96
         241	1	81	1	0.0	86.00001	112.82	97.41
         242	1	81	3	0.0	86.93	114.28	95.82
         243	1	81	4	0.0	86.31999	113.27	98.9
         244	1	82	1	0.0	89.46	113.03	95.91
         245	1	82	3	0.0	89.96	113.35	93.560005
         246	1	82	4	0.0	90.74	112.33	96.49
         247	1	83	1	0.0	88.409996	111.25	92.69
         248	1	83	3	0.0	87.37	112.69	91.020004
         249	1	83	4	0.0	87.95	109.82	92.5
         250	1	84	1	0.0	85.28	113.68001	92.69
         251	1	84	3	0.0	85.58	115.69	91.329994
         252	1	84	4	0.0	84.23	113.65	93.80001
         253	1	85	1	0.0	87.5	116.77	92.85
         254	1	85	3	0.0	88.59	117.58	90.85
         255	1	85	4	0.0	88.13	117.4	94.06
         256	1	86	1	0.0	89.869995	115.27999	90.18
         257	1	86	3	0.0	89.72	116.31	88.03001
         258	1	86	4	0.0	90.57001	113.91	90.09
         259	1	87	1	0.0	87.04	115.36	87.5
         260	1	87	3	0.0	86.95999	117.42	86.29
         261	1	87	4	0.0	85.7	114.66	87.7
         262	1	88	1	0.0	86.19999	118.98	88.44
         263	1	88	3	0.0	87.37	120.75	87.19
         264	1	88	4	0.0	85.45	119.22	89.78
         265	1	89	1	0.0	89.92	120.09	88.28999
         266	1	89	3	0.0	90.59	120.670006	86.04
         267	1	89	4	0.0	91.06	119.67	89.21
         268	1	90	1	0.0	90.19999	118.08	85.05
         269	1	90	3	0.0	90.05001	119.05	82.9
         270	1	90	4	0.0	90.02	116.53	85.06
         271	1	91	1	0.0	87.3	119.52999	83.13
         272	1	91	3	0.0	87.73	121.72	82.11
         273	1	91	4	0.0	85.83	119.32	83.42
         274	1	92	1	0.0	88.3	123.03	84.43
         275	1	92	3	0.0	89.84	124.34	83.15
         276	1	92	4	0.0	88.04	123.55	85.88
         277	1	93	1	0.0	91.87	122.27	83.12
         278	1	93	3	0.0	92.3	122.81	80.84
         279	1	93	4	0.0	92.75	121.21	83.74
         280	1	94	1	0.0	90.41	121.0	79.88
         281	1	94	3	0.0	90.29	122.76999	78.19
         282	1	94	4	0.0	89.36001	119.87	79.75
         283	1	95	1	0.0	88.48	124.41999	79.81
         284	1	95	3	0.0	89.52	126.380005	78.68
         285	1	95	4	0.0	87.45	124.85	80.9
         286	1	96	1	0.0	91.89	126.380005	80.31
         287	1	96	3	0.0	92.98999	126.89001	78.29
         288	1	96	4	0.0	92.670006	126.59	81.61
         289	1	97	1	0.0	93.89	124.31	77.84
         290	1	97	3	0.0	93.82	124.88	75.45
         291	1	97	4	0.0	94.509995	122.86	78.26
         292	1	98	1	0.0	91.12	124.32	75.15
         293	1	98	3	0.0	91.38	126.01	73.59
         294	1	98	4	0.0	89.7	123.64	75.28
         295	1	99	1	0.0	90.76999	128.1	75.47
         296	1	99	3	0.0	92.24	129.37	74.2
         297	1	99	4	0.0	90.09	128.83	76.78
         298	1	100	1	0.0	94.59	128.39	75.45
         299	1	100	3	0.0	95.590004	128.76	73.43
         300	1	100	4	0.0	95.54	127.82	76.54
         301	1	101	1	0.0	95.020004	126.3	72.36
         302	1	101	3	0.0	94.92	127.52999	70.3
         303	1	101	4	0.0	94.65	124.84	72.15
         304	1	102	1	0.0	92.23	128.11	70.31
         305	1	102	3	0.0	92.920006	130.25	69.39
         306	1	102	4	0.0	90.67	128.0	70.38
         307	1	103	1	0.0	93.869995	131.33	71.66
         308	1	103	3	0.0	95.55	132.3	70.31
         309	1	103	4	0.0	94.189995	131.83	73.11
         310	1	104	1	0.0	97.16001	130.18	70.09
         311	1	104	3	0.0	97.51	130.73	67.74
         312	1	104	4	0.0	97.99999	128.92	70.49
         313	1	105	1	0.0	95.31	129.64	66.72
         314	1	105	3	0.0	95.43	131.56	65.34
         315	1	105	4	0.0	94.03	128.86	66.4
         316	1	106	1	0.0	94.18	133.24	67.22
         317	1	106	3	0.0	95.51	134.97	66.26
         318	1	106	4	0.0	93.240005	133.68	68.41
         319	1	107	1	0.0	97.85	134.5	67.98
         320	1	107	3	0.0	99.17	135.38	66.21
         321	1	107	4	0.0	98.61	133.79	69.11
         322	1	108	1	0.0	99.13	133.09	64.65
         323	1	108	3	0.0	98.95	134.13	62.529995
         324	1	108	4	0.0	99.46001	131.55	64.35
         325	1	109	1	0.0	95.93	134.13	62.749996
         326	1	109	3	0.0	96.06	136.02	61.31
         327	1	109	4	0.0	94.50001	133.74	63.18
         328	1	110	1	0.0	96.51	137.79	63.419994
         329	1	110	3	0.0	97.38	139.26	61.81
         330	1	110	4	0.0	96.76	138.37	64.87
         331	1	111	1	0.0	99.82	137.89	61.74
         332	1	111	3	0.0	101.16001	136.3	62.95
         333	1	111	4	0.0	100.61	139.21	62.02
         334	1	112	1	0.0	102.56	135.29	60.89
         335	1	112	3	0.0	104.69	136.27	60.72
         336	1	112	4	0.0	102.08	133.79	60.83
         337	1	113	1	0.0	103.12	134.72	57.81
         338	1	113	3	0.0	101.38	136.39	58.1
         339	1	113	4	0.0	104.07	134.66	56.529995
         340	1	114	1	0.0	99.71001	135.31	56.17
         341	1	114	3	0.0	98.23	134.53	57.93
         342	1	114	4	0.0	99.340004	134.65	54.83
         343	1	115	1	0.0	96.85999	136.96	58.22
         344	1	115	3	0.0	94.50001	136.64	58.44
         345	1	115	4	0.0	96.94	138.36	58.82
         346	1	116	1	0.0	94.189995	136.42	55.5
         347	1	116	3	0.0	94.67	134.09	55.94
         348	1	116	4	0.0	94.38999	136.63	54.0
         349	1	117	1	0.0	91.93	133.52	56.360004
         350	1	117	3	0.0	91.32	132.55	54.28
         351	1	117	4	0.0	90.53	133.67	56.93
         352	1	118	1	0.0	92.9	130.17	54.85
         353	1	118	3	0.0	92.16	128.76	56.73
         354	1	118	4	0.0	94.42	130.11	54.54
         355	1	119	1	0.0	91.75	126.439995	55.12
         356	1	119	3	0.0	93.59	125.62999	56.41
         357	1	119	4	0.0	91.96999	125.39	53.99
         358	1	120	1	0.0	92.07	124.95	58.73
         359	1	120	3	0.0	90.46	123.13	58.580006
         360	1	120	4	0.0	91.46001	125.619995	59.94
         361	1	121	1	0.0	92.26	121.17	58.44
         362	1	121	3	0.0	92.28999	120.84	60.92
         363	1	121	4	0.0	93.45	120.21	58.209995
         364	1	122	1	0.0	90.06	119.12	60.809998
         365	1	122	3	0.0	90.9	117.67	62.520004
         366	1	122	4	0.0	88.65	118.48	60.57
         367	1	123	1	0.0	92.670006	116.46	60.8
         368	1	123	3	0.0	94.11	116.28	62.620003
         369	1	123	4	0.0	93.25	115.84999	59.61
         370	1	124	1	0.0	95.18	118.82001	62.32
         371	1	124	3	0.0	95.13	119.020004	64.66
         372	1	124	4	0.0	95.71001	120.15001	61.790005
         373	1	125	1	0.0	92.43	119.96999	64.72
         374	1	125	3	0.0	92.41999	119.01001	66.91
         375	1	125	4	0.0	91.05	120.57	64.31
         376	1	126	1	0.0	92.08	116.4	65.78
         377	1	126	3	0.0	93.619995	115.72	67.46
         378	1	126	4	0.0	91.44	115.35	64.79
         379	1	127	1	0.0	95.89	115.88	66.09
         380	1	127	3	0.0	96.670006	116.3	68.39
         381	1	127	4	0.0	96.96	115.99	65.02
         382	1	128	1	0.0	96.07	119.1	68.22
         383	1	128	3	0.0	95.64	119.2	70.54
         384	1	128	4	0.0	95.68	120.44	67.57
         385	1	129	1	0.0	92.94	118.28	70.44
         386	1	129	3	0.0	93.10999	117.07	72.56
         387	1	129	4	0.0	91.46001	118.34	70.05
         388	1	130	1	0.0	94.380005	114.89001	71.27
         389	1	130	3	0.0	95.74	114.89001	73.14
         390	1	130	4	0.0	94.73	113.79	70.26
         391	1	131	1	0.0	97.57	116.65	72.06
         392	1	131	3	0.0	97.93001	117.39	74.23
         393	1	131	4	0.0	98.439995	117.48001	71.06
         394	1	132	1	0.0	95.83001	119.22	74.34
         395	1	132	3	0.0	95.68	118.43	76.62
         396	1	132	4	0.0	94.68	120.09999	73.95
         397	1	133	1	0.0	94.06999	116.31	76.09
         398	1	133	3	0.0	95.17	115.12	77.9
         399	1	133	4	0.0	92.920006	115.46001	75.48
         400	1	134	1	0.0	97.4	114.33	76.51
         401	1	134	3	0.0	98.36	114.69001	78.66
         402	1	134	4	0.0	98.41	113.93001	75.38
         403	1	135	1	0.0	98.98	117.44	78.19
         404	1	135	3	0.0	98.6	117.73	80.57
         405	1	135	4	0.0	99.22	118.83999	77.51
         406	1	136	1	0.0	95.79	118.11	80.28
         407	1	136	3	0.0	95.64	117.6	82.62
         408	1	136	4	0.0	94.37001	118.380005	79.67
         409	1	137	1	0.0	95.87	114.82001	82.21
         410	1	137	3	0.0	97.02	114.86	84.36
         411	1	137	4	0.0	95.77	113.36001	81.59
         412	1	138	1	0.0	99.38	115.71001	83.14
         413	1	138	3	0.0	99.5	116.79001	85.2
         414	1	138	5	0.0	98.19999	108.07768918	77.99263996
         415	1	139	1	0.0	98.67	119.27999	84.22
         416	1	139	3	0.0	97.93001	119.67	86.509995
         417	1	139	4	0.0	98.09	120.34	83.26
         418	1	140	1	0.0	95.649994	118.23	86.33
         419	1	140	3	0.0	95.54	117.490005	88.59
         420	1	140	4	0.0	94.26	117.68001	85.8
         421	1	141	1	0.0	97.39	115.35	88.31
         422	1	141	3	0.0	97.64	115.51	90.6
         423	1	141	4	0.0	98.24	114.21	87.62
         424	1	142	1	0.0	99.51	117.33	90.83999
         425	1	142	3	0.0	99.16	118.71	92.7
         426	1	142	4	0.0	100.87	117.94	90.35
         427	1	143	1	0.0	96.96	120.11	91.52
         428	1	143	3	0.0	96.409996	120.600006	93.77
         429	1	143	4	0.0	96.05	120.670006	90.439995
         430	1	144	1	0.0	95.079994	118.36	94.380005
         431	1	144	3	0.0	96.16999	118.36	96.46
         432	1	144	4	0.0	94.14	117.2	94.23
         433	1	145	1	0.0	98.53	117.08	95.76
         434	1	145	3	0.0	99.43	118.36	97.62999
         435	1	145	4	0.0	99.58001	116.26	94.99
         436	1	146	1	0.0	99.75	120.84	96.19
         437	1	146	3	0.0	99.1	122.01	98.23
         438	1	146	4	0.0	99.88	121.85	95.06
         439	1	147	1	0.0	96.37	121.35	97.9
         440	1	147	3	0.0	96.25	121.08	100.21999
         441	1	147	5	0.0	97.47	114.31597239	91.8051633
         442	1	148	1	0.0	97.15	118.36	100.16
         443	1	148	3	0.0	98.21	118.81	102.25001
         444	1	148	4	0.0	97.36001	116.89	99.64
         445	1	149	1	0.0	100.46	120.07	101.1
         446	1	149	3	0.0	100.28999	121.66	102.95999
         447	1	149	4	0.0	101.68001	120.5	100.21999
         448	1	150	1	0.0	98.57001	123.44	101.560005
         449	1	150	3	0.0	97.89	124.03001	103.79
         450	1	150	4	0.0	97.810005	124.06	100.39
         451	1	151	1	0.0	95.82	122.189995	103.78001
         452	1	151	3	0.0	95.329994	120.05	102.95999
         453	1	151	4	0.0	94.46	122.83	103.37
         454	1	152	1	0.0	96.23	118.63999	105.30999
         455	1	152	3	0.0	94.83999	116.81	105.78
         456	1	152	4	0.0	97.1	118.26	106.53
         457	1	153	1	0.0	92.49	118.380005	106.18
         458	1	153	3	0.0	90.41	118.189995	105.03
         459	1	153	4	0.0	91.90001	119.36	107.24
         460	1	154	1	0.0	91.5	118.74	102.48
         461	1	154	3	0.0	89.26	118.36	101.869995
         462	1	154	4	0.0	92.41999	119.12	101.38
         463	1	155	1	0.0	89.39	115.6	101.68001
         464	1	155	3	0.0	87.89	114.18	102.88
         465	1	155	4	0.0	89.98	114.43	100.9
         466	1	156	1	0.0	88.65	114.79	105.34
         467	1	156	3	0.0	87.18	115.45	107.079994
         468	1	156	4	0.0	89.77	114.26	106.27
         469	1	157	1	0.0	87.16	118.27	106.34
         470	1	157	3	0.0	84.97	118.54	107.25
         471	1	157	4	0.0	87.76	119.63	105.78
         472	1	158	1	0.0	83.62	117.82	104.98999
         473	1	158	3	0.0	82.14	117.57	103.17
         474	1	158	5	0.0	85.11	110.19524848	99.05652156
         475	1	159	1	0.0	83.61	119.23	101.42
         476	1	159	3	0.0	85.87	118.61	100.78
         477	1	159	4	0.0	83.43	120.729996	101.34
         478	1	160	1	0.0	85.29	118.21	98.06
         479	1	160	3	0.0	85.94999	119.01001	95.93
         480	1	160	4	0.0	84.81	116.91001	97.490005
         481	1	161	1	0.0	85.03	121.66	96.409996
         482	1	161	3	0.0	86.37001	122.75	94.81
         483	1	161	4	0.0	84.14	122.83	96.93
         484	1	162	1	0.0	88.75	122.68	96.19
         485	1	162	3	0.0	88.350006	125.07	96.04
         486	1	162	4	0.0	89.99	121.80001	96.65
         487	1	163	1	0.0	89.84	125.869995	98.189995
         488	1	163	3	0.0	91.06	126.93	96.36
         489	1	163	4	0.0	90.68	125.94999	99.46001
         490	1	164	1	0.0	89.73	129.57	97.08
         491	1	164	3	0.0	92.08	129.68	97.67
         492	1	164	4	0.0	89.17	130.44	98.26
         493	1	165	1	0.0	92.82	130.68	95.23
         494	1	165	3	0.0	92.61	133.11	95.57
         495	1	165	4	0.0	92.88	130.69	93.65
         496	1	166	1	0.0	95.14001	133.41	96.59
         497	1	166	3	0.0	96.659996	135.03	95.93
         498	1	166	4	0.0	95.93	133.14	97.92
         499	1	167	1	0.0	97.17	133.74	93.39
         500	1	167	3	0.0	97.28	135.31	91.57
         501	1	167	4	0.0	97.619995	132.45	92.65
         502	1	168	1	0.0	94.38999	135.69	91.52999
         503	1	168	3	0.0	94.95	137.15	89.72
         504	1	168	4	0.0	92.91001	135.73	92.06
         505	1	169	1	0.0	96.13	139.12	91.24
         506	1	169	3	0.0	97.57	139.26	89.17
         507	1	169	4	0.0	96.47001	140.27	92.27
         508	1	170	1	0.0	99.61	137.84	89.96
         509	1	170	3	0.0	99.87	136.84	87.76
         510	1	170	4	0.0	100.83	137.55	90.73
         511	1	171	1	0.0	98.33	134.49	88.32
         512	1	171	3	0.0	97.58	135.16	86.1
         513	1	171	5	0.0	98.53	124.67458268	82.57301006
         514	1	172	1	0.0	94.89001	134.51	86.61
         515	1	172	3	0.0	94.28	136.2	84.85
         516	1	172	4	0.0	93.54	134.05	87.26001
         517	1	173	1	0.0	94.93	138.31	86.26
         518	1	173	3	0.0	96.08	138.91	84.15
         519	1	173	4	0.0	94.61	139.25	87.47
         520	1	174	1	0.0	98.37001	139.78	85.6
         521	1	174	3	0.0	99.47	139.23	83.55
         522	1	174	4	0.0	99.29	140.42	86.55
         523	1	175	1	0.0	100.14	136.67	83.95
         524	1	175	3	0.0	99.83001	135.43	81.95
         525	1	175	4	0.0	100.85999	135.57	84.8
         526	1	176	1	0.0	97.0	135.28	82.04
         527	1	176	3	0.0	96.01	136.27	80.1
         528	1	176	4	0.0	96.51	134.04	82.83
         529	1	177	1	0.0	93.82	137.27	81.51
         530	1	177	3	0.0	93.619995	139.03	79.91
         531	1	177	4	0.0	92.729996	137.46	82.71
         532	1	178	1	0.0	95.62	140.61	80.83
         533	1	178	3	0.0	95.98	141.15	78.64
         534	1	178	4	0.0	96.4	141.35	81.89
         535	1	179	1	0.0	98.130005	139.45	78.02
         536	1	179	3	0.0	97.28	139.16	75.78
         537	1	179	4	0.0	99.39	138.68	78.27
         538	1	180	1	0.0	95.3	137.33	76.54
         539	1	180	3	0.0	94.09	138.51	74.89
         540	1	180	4	0.0	94.46	136.14	77.18
         541	1	181	1	0.0	93.05	140.45	76.66
         542	1	181	3	0.0	92.89	141.8	74.8
         543	1	181	4	0.0	92.73999	141.19	77.95
         544	1	182	1	0.0	95.52999	142.68	74.78
         545	1	182	3	0.0	95.01001	142.75	72.44
         546	1	182	4	0.0	96.91001	143.05	75.25
         547	1	183	1	0.0	95.6	140.08	72.04
         548	1	183	3	0.0	94.00001	139.99	70.3
         549	1	183	4	0.0	96.37	138.7	72.11
         550	1	184	1	0.0	91.649994	139.7	71.94
         551	1	184	3	0.0	90.38999	141.09	70.53
         552	1	184	4	0.0	90.85	138.93	73.0
         553	1	185	1	0.0	91.38	143.52	71.57
         554	1	185	3	0.0	91.399994	144.23	69.34
         555	1	185	4	0.0	91.86	144.6	72.54
         556	1	186	1	0.0	93.94999	143.21	68.7
         557	1	186	3	0.0	93.2	142.73	66.52
         558	1	186	4	0.0	95.39	142.67	68.98
         559	1	187	1	0.0	91.92	140.42	67.23
         560	1	187	3	0.0	90.14	140.78	65.66
         561	1	187	4	0.0	91.7	139.06	67.92
         562	1	188	1	0.0	88.659996	142.6	67.21
         563	1	188	3	0.0	88.25	143.65	65.07
         564	1	188	4	0.0	87.93	143.28	68.41
         565	1	189	1	0.0	90.68	145.18	65.22
         566	1	189	3	0.0	90.67	144.97	62.8
         567	1	189	4	0.0	91.91	145.93	65.9
         568	1	190	1	0.0	92.04	142.53	62.88
         569	1	190	3	0.0	90.66	142.04	61.03
         570	1	190	4	0.0	92.83	141.3	63.31
         571	1	191	1	0.0	88.45	141.11	62.17
         572	1	191	3	0.0	87.12	142.02	60.41
         573	1	191	4	0.0	87.76	140.27	63.250004
         574	1	192	1	0.0	87.05	144.52	61.49
         575	1	192	3	0.0	87.270004	145.62	59.3
         576	1	192	4	0.0	86.71	145.61	62.51
         577	1	193	1	0.0	89.98	145.29	59.3
         578	1	193	3	0.0	89.76	144.54	56.97
         579	1	193	4	0.0	91.43	145.22	59.890003
         580	1	194	1	0.0	89.46	141.86	57.45
         581	1	194	3	0.0	87.99	142.02	55.56
         582	1	194	4	0.0	89.76	140.47	58.07
         583	1	195	1	0.0	85.74	142.9	57.09
         584	1	195	3	0.0	85.02	144.2	55.099995
         585	1	195	4	0.0	84.72	143.08	58.15
         586	1	196	1	0.0	86.24	146.54	55.88
         587	1	196	3	0.0	87.37	147.45	54.0
         588	1	196	4	0.0	86.08	147.6	56.92
         589	1	197	1	0.0	89.9	147.11	54.88
         590	1	197	3	0.0	90.03	145.02	53.72
         591	1	197	4	0.0	91.05	147.33	55.86
         592	1	198	1	0.0	91.48	146.18	51.4
         593	1	198	3	0.0	93.09	145.06	52.83
         594	1	198	4	0.0	92.04	147.24	50.47
         595	1	199	1	0.0	93.6	143.07	51.11
         596	1	199	3	0.0	95.46001	144.68	50.809998
         597	1	199	4	0.0	93.48001	142.03	50.02
         598	1	200	1	0.0	97.39	143.17	52.109997
         599	1	200	3	0.0	99.0	144.62	50.91
         600	1	200	4	0.0	98.21	142.09	52.939995
         601	1	201	1	0.0	98.83999	143.23	48.580006
         602	1	201	3	0.0	99.25	145.33	47.5
         603	1	201	4	0.0	98.72	142.11	47.570004
         604	1	202	1	0.0	96.58	146.13	47.43
         605	1	202	3	0.0	97.48001	148.3	47.81
         606	1	202	4	0.0	95.07	146.04	47.2
         607	1	203	1	0.0	97.04001	148.09	50.79
         608	1	203	3	0.0	99.2	148.63	50.15
         609	1	203	4	0.0	97.1	147.54	52.19
         610	1	204	1	0.0	98.99	151.4	50.939995
         611	1	204	3	0.0	100.23	150.32	52.63
         612	1	204	4	0.0	98.450005	152.73	51.49
         613	1	205	1	0.0	102.66	151.66	51.950005
         614	1	205	3	0.0	103.17	149.56	50.86
         615	1	205	4	0.0	102.8	152.26	53.36
         616	1	206	1	0.0	104.89	148.62	52.86
         617	1	206	3	0.0	106.36	148.96	50.97
         618	1	206	5	0.0	104.16	138.27040725	50.21663953
         619	1	207	1	0.0	106.67	146.22	50.489998
         620	1	207	3	0.0	104.73999	145.39	49.470005
         621	1	207	4	0.0	107.270004	144.9	51.01
         622	1	208	1	0.0	105.54	146.42	46.900005
         623	1	208	3	0.0	106.31999	144.54	45.630005
         624	1	208	4	0.0	105.99999	147.54	45.950005
         625	1	209	1	0.0	103.83001	143.2	45.6
         626	1	209	3	0.0	102.759995	143.89	43.56
         627	1	209	4	0.0	102.509995	142.55	46.18
         628	1	210	1	0.0	104.38	142.1	42.01
         629	1	210	3	0.0	102.33	140.88	42.08
         630	1	210	4	0.0	105.42	140.94	41.76
         631	1	211	1	0.0	101.39	141.41	39.62
         632	1	211	3	0.0	102.54	139.74	38.24
         633	1	211	4	0.0	100.73999	142.27	38.49
         634	1	212	1	0.0	101.07	137.63	39.18
         635	1	212	3	0.0	101.08	136.85	37.0
         636	1	212	4	0.0	100.46	136.67	40.21
         637	1	213	1	0.0	98.68	138.21	36.22
         638	1	213	3	0.0	98.75	140.62	35.78
         639	1	213	4	0.0	97.10999	138.01	36.24
         640	1	214	1	0.0	99.69	140.28	33.12
         641	1	214	3	0.0	98.56	141.01	31.13
         642	1	214	4	0.0	100.93	139.79	32.27
         643	1	215	1	0.0	96.06	140.83	32.15
         644	1	215	3	0.0	95.38	140.85	34.42
         645	1	215	4	0.0	95.48	139.66	31.290003
         646	1	216	1	0.0	93.34	142.87	33.82
         647	1	216	3	0.0	93.810005	144.68	35.28
         648	1	216	4	0.0	92.62	142.12	35.02
         649	1	217	1	0.0	95.93	145.67	33.79
         650	1	217	3	0.0	95.71001	147.71	35.04
         651	1	217	4	0.0	97.19	145.73	32.81
         652	1	218	1	0.0	94.02	147.39	31.89