ITEM: TIMESTEP
0
ITEM: NUMBER OF ATOMS
8634
ITEM: BOX BOUNDS ss ss ss
36.62 161.82
11.26 152.8
-4.18 130.44
ITEM: ATOMS id type xs ys zs
1 1 0.280431 0.855589 0.843337
2 3 0.272444 0.864067 0.829966
3 4 0.273163 0.853822 0.852994
4 1 0.260942 0.84923 0.823057
5 3 0.250479 0.83623 0.828629
6 4 0.265575 0.844002 0.814144
7 1 0.230831 0.848029 0.830189
8 3 0.228435 0.835947 0.817041
9 4 0.223163 0.857002 0.828554
10 1 0.213818 0.825138 0.8264
11 3 0.211102 0.819415 0.809092
12 4 0.20599 0.82104 0.834423
13 1 0.197444 0.835524 0.805229
14 3 0.205431 0.834676 0.78911
15 4 0.189217 0.842942 0.808572
16 1 0.222204 0.846828 0.793344
17 3 0.233946 0.838985 0.781905
18 4 0.228834 0.8558 0.796464
19 1 0.240655 0.82535 0.79535
20 3 0.244169 0.814964 0.781756
21 4 0.24393 0.820404 0.805527
22 1 0.222444 0.808676 0.781162
23 3 0.224042 0.809029 0.764002
24 4 0.210783 0.805921 0.783093
25 1 0.216374 0.828741 0.761848
26 3 0.227955 0.82754 0.747957
27 4 0.211821 0.838491 0.765562
28 1 0.245927 0.833051 0.757688
29 3 0.255351 0.82316 0.746026
30 4 0.253914 0.836371 0.765859
31 1 0.25016 0.806274 0.75546
32 3 0.249441 0.800127 0.739415
33 4 0.248642 0.798997 0.764225
34 1 0.226917 0.804861 0.736815
35 3 0.231949 0.805779 0.720027
36 4 0.215256 0.806768 0.739415
37 1 0.238339 0.824785 0.721512
38 3 0.25016 0.820192 0.708439
39 4 0.238818 0.834958 0.725672
40 1 0.266454 0.81341 0.721958
41 3 0.270128 0.804013 0.707399
42 4 0.271885 0.810654 0.731615
43 1 0.254233 0.790731 0.711633
44 3 0.252236 0.789318 0.693582
45 4 0.246246 0.784301 0.716981
46 1 0.239137 0.80472 0.690982
47 3 0.249121 0.805073 0.675754
48 4 0.23107 0.812491 0.692022
49 1 0.266294 0.815459 0.684519
50 3 0.277077 0.806768 0.673303
51 4 0.271326 0.821958 0.691799
52 1 0.278754 0.790731 0.685188
53 3 0.279233 0.782323 0.670777
54 4 0.279633 0.78416 0.694176
55 1 0.257029 0.780345 0.668549
56 3 0.260783 0.781617 0.650869
57 4 0.245607 0.780345 0.670926
58 1 0.264856 0.80154 0.651241
59 3 0.279473 0.799845 0.63943
60 4 0.261741 0.812067 0.652726
61 1 0.294649 0.795252 0.653692
62 3 0.300799 0.785502 0.640544
63 4 0.301278 0.795464 0.6632
64 1 0.28754 0.769818 0.646264
65 3 0.286422 0.765649 0.629401
66 4 0.281869 0.762399 0.6528
67 1 0.270687 0.778861 0.624721
68 3 0.279633 0.782111 0.609271
69 4 0.260783 0.78529 0.625316
70 1 0.295367 0.79391 0.616105
71 3 0.305511 0.784654 0.604145
72 5 0.286102 0.746591 0.575661
73 1 0.310463 0.770524 0.616105
74 3 0.309265 0.760916 0.601397
75 4 0.313339 0.763388 0.624573
76 1 0.286821 0.758513 0.601322
77 3 0.288339 0.758725 0.583866
78 4 0.275559 0.756041 0.604888
79 1 0.28738 0.77872 0.582751
80 3 0.299042 0.776671 0.568266
81 4 0.285942 0.788823 0.58498
82 1 0.318131 0.773774 0.578517
83 3 0.319089 0.763176 0.564032
84 4 0.327396 0.774057 0.585871
85 1 0.311342 0.747139 0.574655
86 3 0.305431 0.739862 0.559575
87 4 0.308067 0.741063 0.583569
88 1 0.286342 0.749329 0.559278
89 3 0.285783 0.753144 0.541301
90 4 0.275319 0.751731 0.563884
91 1 0.298323 0.769606 0.542639
92 3 0.308546 0.767062 0.527188
93 4 0.302556 0.779144 0.546427
94 1 0.322284 0.753709 0.535062
95 3 0.311022 0.743253 0.525182
96 4 0.328594 0.747986 0.542713
97 1 0.323562 0.744171 0.507651
98 3 0.338578 0.734845 0.510771
99 4 0.327636 0.750389 0.498589
100 1 0.327875 0.718101 0.50364
101 3 0.331629 0.706161 0.49272
102 4 0.319329 0.711813 0.508171
103 1 0.336102 0.718242 0.476081
104 3 0.353914 0.713932 0.482618
105 4 0.338099 0.727003 0.469767
106 1 0.357827 0.700933 0.46635
107 3 0.370847 0.713226 0.466053
108 4 0.357109 0.697612 0.455876
109 1 0.386182 0.70284 0.476527
110 3 0.391454 0.71365 0.4896
111 4 0.39353 0.708987 0.469098
112 1 0.373083 0.709693 0.502006
113 3 0.38131 0.716476 0.515897
114 4 0.361182 0.705737 0.504531
115 1 0.395527 0.703264 0.520056
116 3 0.414776 0.707786 0.520948
117 4 0.398003 0.693585 0.524142
118 1 0.414617 0.716688 0.502228
119 3 0.415495 0.731525 0.49428
120 4 0.417812 0.711954 0.491977
121 1 0.405351 0.741133 0.50988
122 3 0.401438 0.735976 0.526445
123 4 0.396246 0.743253 0.502823
124 1 0.402077 0.755264 0.533799
125 3 0.391134 0.751943 0.548433
126 4 0.403195 0.765649 0.534319
127 1 0.371565 0.753639 0.538107
128 3 0.364058 0.745302 0.552295
129 4 0.363179 0.753568 0.530159
130 1 0.372684 0.728204 0.546947
131 3 0.373323 0.72672 0.564849
132 4 0.377236 0.719584 0.541004
133 1 0.393211 0.733715 0.567078
134 3 0.388498 0.739579 0.582677
135 4 0.405032 0.735834 0.565072
136 1 0.379153 0.755475 0.575695
137 3 0.365575 0.754769 0.588397
138 4 0.379393 0.764872 0.569678
139 1 0.353355 0.741063 0.577254
140 3 0.351118 0.732796 0.592705
141 4 0.346725 0.735622 0.569083
142 1 0.369808 0.723753 0.592483
143 3 0.366933 0.72446 0.609939
144 4 0.380192 0.71909 0.588991
145 1 0.376757 0.742546 0.610756
146 3 0.364856 0.745726 0.624796
147 4 0.383147 0.75159 0.607859
148 1 0.347204 0.750671 0.612316
149 3 0.333706 0.744383 0.622567
150 4 0.340895 0.75491 0.603031
151 1 0.336182 0.725872 0.617145
152 3 0.333786 0.721916 0.634081
153 4 0.33746 0.716476 0.611276
154 1 0.35615 0.724813 0.638984
155 3 0.349361 0.729758 0.654658
156 4 0.36853 0.724601 0.63683
157 1 0.348243 0.749823 0.647155
158 3 0.332268 0.752084 0.656737
159 4 0.35008 0.758019 0.640024
160 1 0.319329 0.740497 0.645892
161 3 0.31238 0.733573 0.661269
162 4 0.31254 0.73753 0.636904
163 1 0.326278 0.718454 0.663126
164 3 0.326278 0.721139 0.680805
165 4 0.333786 0.709976 0.661194
166 1 0.341933 0.733997 0.68088
167 3 0.332109 0.743394 0.692393
168 4 0.353435 0.73866 0.679171
169 1 0.318131 0.750671 0.679245
170 3 0.304153 0.749187 0.691279
171 5 0.327716 0.706317 0.637503
172 1 0.300799 0.729546 0.687639
173 3 0.29992 0.727639 0.705244
174 4 0.298962 0.720644 0.681102
175 1 0.322204 0.725095 0.70777
176 3 0.320607 0.732584 0.724038
177 4 0.333626 0.72128 0.705616
178 1 0.323642 0.750883 0.716758
179 3 0.311821 0.756818 0.729312
180 4 0.326278 0.758302 0.70933
181 1 0.292891 0.75378 0.718021
182 3 0.285383 0.756888 0.734363
183 4 0.284665 0.749682 0.710518
184 1 0.28754 0.740144 0.7435
185 3 0.293371 0.747421 0.759174
186 4 0.286581 0.729405 0.745209
187 1 0.313978 0.748481 0.754048
188 3 0.313099 0.762046 0.764968
189 4 0.326038 0.746573 0.750037
190 1 0.307109 0.773916 0.749666
191 3 0.296006 0.781546 0.761551
192 4 0.304872 0.778932 0.739563
193 1 0.278594 0.770948 0.759248
194 3 0.276757 0.774905 0.776036
195 4 0.26901 0.765296 0.755014
196 1 0.288099 0.757736 0.782945
197 3 0.291933 0.767416 0.797058
198 4 0.294569 0.748552 0.78235
199 1 0.308147 0.777589 0.787253
200 3 0.303275 0.790731 0.797876
201 4 0.316933 0.780698 0.780939
202 1 0.287061 0.79723 0.785693
203 3 0.276038 0.80041 0.800475
204 4 0.280831 0.800834 0.776705
205 1 0.264457 0.784584 0.80003
206 3 0.260543 0.784231 0.817783
207 4 0.257268 0.776459 0.79587
208 1 0.278514 0.773986 0.821943
209 3 0.296805 0.779709 0.82016
210 4 0.278035 0.762611 0.820903
211 1 0.302396 0.777872 0.840588
212 3 0.313738 0.769888 0.82952
213 5 0.292332 0.729911 0.795204
214 1 0.320367 0.756465 0.842743
215 3 0.309105 0.742688 0.84668
216 4 0.327636 0.753992 0.851657
217 1 0.310383 0.736046 0.827366
218 3 0.315655 0.722411 0.817263
219 4 0.30024 0.737742 0.821423
220 1 0.336422 0.727215 0.815184
221 3 0.333227 0.714144 0.804932
222 4 0.347204 0.732019 0.817783
223 1 0.335064 0.722905 0.786807
224 3 0.338498 0.70715 0.779973
225 4 0.334824 0.731383 0.779602
226 1 0.359345 0.710047 0.775516
227 3 0.37516 0.713367 0.785099
228 4 0.363019 0.71478 0.765637
229 1 0.381949 0.694786 0.78651
230 3 0.392093 0.699943 0.772396
231 4 0.38155 0.684612 0.784579
232 1 0.410224 0.703759 0.783836
233 3 0.419649 0.705384 0.767939
234 4 0.41861 0.702487 0.791933
235 1 0.420288 0.687297 0.762442
236 3 0.416613 0.68977 0.745134
237 4 0.423562 0.676982 0.76274
238 1 0.394489 0.691395 0.747734
239 3 0.391534 0.705242 0.738152
240 4 0.383866 0.686661 0.7513
241 1 0.394409 0.717536 0.754643
242 3 0.401837 0.727851 0.742832
243 4 0.396965 0.720715 0.765711
244 1 0.422045 0.719019 0.7435
245 3 0.426038 0.72128 0.726044
246 4 0.432268 0.714074 0.747809
247 1 0.413658 0.706443 0.719581
248 3 0.405351 0.716617 0.707176
249 4 0.409984 0.69634 0.71817
250 1 0.388658 0.723612 0.719581
251 3 0.391054 0.737813 0.709478
252 4 0.380272 0.7234 0.727827
253 1 0.40639 0.745443 0.72077
254 3 0.415096 0.751166 0.705913
255 4 0.411422 0.749894 0.729758
256 1 0.425319 0.734916 0.700936
257 3 0.424121 0.742193 0.684965
258 4 0.430911 0.725237 0.700267
259 1 0.402716 0.735481 0.681028
260 3 0.402077 0.750035 0.67204
261 4 0.392013 0.730536 0.682514
262 1 0.396006 0.761057 0.688011
263 3 0.405351 0.773562 0.678725
264 4 0.390016 0.762753 0.697965
265 1 0.425719 0.768899 0.686896
266 3 0.43107 0.772997 0.670183
267 4 0.434824 0.765932 0.693731
268 1 0.427955 0.754698 0.662829
269 3 0.426757 0.761552 0.646858
270 4 0.426518 0.743747 0.662903
271 1 0.404792 0.764943 0.648566
272 3 0.408227 0.780415 0.640989
273 4 0.393051 0.763459 0.650721
274 1 0.41278 0.789671 0.658223
275 3 0.42508 0.798926 0.648715
276 4 0.410703 0.793345 0.668994
277 1 0.441294 0.784301 0.648492
278 3 0.444728 0.788116 0.631555
279 4 0.448323 0.776812 0.653098
280 1 0.429633 0.775329 0.624424
281 3 0.428674 0.787834 0.61187
282 4 0.421246 0.767345 0.623459
283 1 0.414217 0.799491 0.623904
284 3 0.422524 0.813339 0.61551
285 4 0.40599 0.802529 0.632001
286 1 0.441454 0.813339 0.627618
287 3 0.45024 0.816942 0.612613
288 4 0.447684 0.814823 0.637275
289 1 0.457428 0.798714 0.609271
290 3 0.456869 0.802741 0.591517
291 4 0.46238 0.78847 0.61239
292 1 0.435304 0.798785 0.589288
293 3 0.43738 0.810725 0.5777
294 4 0.423962 0.793981 0.590254
295 1 0.432508 0.825491 0.591665
296 3 0.444249 0.834464 0.582231
297 4 0.427077 0.830649 0.601397
298 1 0.463019 0.82754 0.591517
299 3 0.471006 0.830154 0.576512
300 4 0.470607 0.823513 0.599614
301 1 0.466454 0.812774 0.568563
302 3 0.465655 0.821464 0.553261
303 4 0.463498 0.802459 0.567003
304 1 0.444169 0.825562 0.553335
305 3 0.449681 0.840681 0.546501
306 4 0.431709 0.824785 0.553855
307 1 0.457268 0.848311 0.563364
308 3 0.470687 0.855165 0.553335
309 4 0.459824 0.851844 0.574135
310 1 0.483546 0.840187 0.551701
311 3 0.486342 0.844072 0.534245
312 4 0.490256 0.831284 0.554672
313 1 0.46877 0.836371 0.526668
314 3 0.469728 0.849936 0.516417
315 4 0.458546 0.830861 0.524291
316 1 0.459744 0.861806 0.530382
317 3 0.470367 0.874029 0.523251
318 4 0.452236 0.864915 0.539222
319 1 0.489058 0.870708 0.536027
320 3 0.499601 0.876925 0.522879
321 4 0.495128 0.865692 0.544421
322 1 0.499281 0.860746 0.511291
323 3 0.497843 0.868094 0.495543
324 4 0.501917 0.849866 0.509063
325 1 0.473722 0.868094 0.497177
326 3 0.47476 0.881447 0.48648
327 4 0.4623 0.865338 0.500371
328 1 0.478355 0.893952 0.502154
329 3 0.485304 0.904338 0.490195
330 4 0.480351 0.89805 0.512925
331 1 0.504792 0.894659 0.489675
332 3 0.515495 0.883425 0.498663
333 4 0.511102 0.903985 0.491755
334 1 0.526677 0.876289 0.483361
335 3 0.54369 0.883213 0.482098
336 4 0.522843 0.865692 0.482915
337 1 0.53115 0.872262 0.460481
338 3 0.517252 0.884061 0.462636
339 4 0.538738 0.871838 0.450973
340 1 0.503914 0.876431 0.448299
341 3 0.492093 0.87092 0.461373
342 4 0.500958 0.871768 0.438345
343 1 0.48115 0.888088 0.463527
344 3 0.4623 0.885827 0.465161
345 4 0.481789 0.897979 0.467984
346 1 0.459824 0.884273 0.443322
347 3 0.463658 0.867811 0.44659
348 4 0.461422 0.885757 0.432179
349 1 0.441773 0.863784 0.44971
350 3 0.436901 0.856931 0.434259
351 4 0.430591 0.864844 0.453944
352 1 0.449521 0.840116 0.438494
353 3 0.44361 0.830154 0.452459
354 4 0.461661 0.839692 0.436191
355 1 0.440335 0.813763 0.440499
356 3 0.455032 0.80804 0.450082
357 4 0.442093 0.806344 0.432105
358 1 0.442891 0.803236 0.467315
359 3 0.430032 0.790377 0.466201
360 4 0.438019 0.807969 0.476304
361 1 0.444409 0.77653 0.465161
362 3 0.444648 0.774198 0.483583
363 4 0.453914 0.769747 0.463453
364 1 0.426837 0.762046 0.482766
365 3 0.433546 0.751802 0.495469
366 4 0.415575 0.757524 0.480984
367 1 0.447684 0.743253 0.482692
368 3 0.459185 0.741981 0.496212
369 4 0.452316 0.738943 0.473852
370 1 0.467732 0.759927 0.493983
371 3 0.467332 0.76134 0.511365
372 4 0.471965 0.769323 0.490046
373 1 0.445767 0.768051 0.511811
374 3 0.445687 0.761269 0.528079
375 4 0.434744 0.772291 0.508765
376 1 0.442971 0.742829 0.519685
377 3 0.455272 0.738025 0.532165
378 4 0.437859 0.73541 0.512331
379 1 0.473403 0.739155 0.521988
380 3 0.479633 0.742122 0.539073
381 4 0.481949 0.739932 0.51404
382 1 0.47484 0.761905 0.53781
383 3 0.471406 0.762611 0.555044
384 4 0.471725 0.771372 0.532982
385 1 0.44984 0.756111 0.554301
386 3 0.451198 0.747563 0.570049
387 4 0.438019 0.756535 0.551404
388 1 0.461342 0.732161 0.560466
389 3 0.472204 0.732161 0.574357
390 4 0.464137 0.724389 0.552964
391 1 0.486821 0.744595 0.566335
392 3 0.489697 0.749823 0.582454
393 4 0.49377 0.750459 0.558907
394 1 0.472923 0.762753 0.583271
395 3 0.471725 0.757171 0.600208
396 4 0.463738 0.76897 0.580374
397 1 0.458866 0.742193 0.596271
398 3 0.467652 0.733786 0.609716
399 4 0.449681 0.736188 0.59174
400 1 0.485463 0.728204 0.599391
401 3 0.493131 0.730748 0.615362
402 4 0.49353 0.725378 0.590997
403 1 0.498083 0.750177 0.61187
404 3 0.495048 0.752226 0.62955
405 4 0.5 0.760068 0.606819
406 1 0.472604 0.75491 0.627396
407 3 0.471406 0.751307 0.644778
408 4 0.461262 0.756818 0.622864
409 1 0.473243 0.731666 0.641732
410 3 0.482428 0.731949 0.657703
411 4 0.472444 0.721351 0.637127
412 1 0.501278 0.737954 0.648641
413 3 0.502236 0.745584 0.663943
414 5 0.491853 0.684031 0.610404
415 1 0.495607 0.763176 0.656663
416 3 0.489697 0.765932 0.673674
417 4 0.490974 0.770666 0.649532
418 1 0.471486 0.755758 0.672337
419 3 0.470607 0.75053 0.689125
420 4 0.460383 0.751872 0.6684
421 1 0.485383 0.73541 0.687045
422 3 0.48738 0.736541 0.704056
423 4 0.492173 0.727356 0.681919
424 1 0.502316 0.749399 0.705839
425 3 0.499521 0.759149 0.719655
426 4 0.513179 0.753709 0.702199
427 1 0.481949 0.769041 0.71089
428 3 0.477556 0.772503 0.727604
429 4 0.474681 0.772997 0.702867
430 1 0.466933 0.756677 0.732135
431 3 0.475639 0.756677 0.747586
432 4 0.459425 0.748481 0.731021
433 1 0.494489 0.747633 0.742386
434 3 0.501677 0.756677 0.756277
435 4 0.502875 0.74184 0.736666
436 1 0.504233 0.774198 0.74558
437 3 0.499042 0.782464 0.760734
438 4 0.505272 0.781334 0.737186
439 1 0.477236 0.777801 0.758283
440 3 0.476278 0.775894 0.775516
441 5 0.486022 0.728105 0.713008
442 1 0.483466 0.756677 0.775071
443 3 0.491933 0.759856 0.790596
444 4 0.485144 0.746291 0.771208
445 1 0.509904 0.768758 0.782053
446 3 0.508546 0.779992 0.79587
447 4 0.519649 0.771796 0.775516
448 1 0.494808 0.792567 0.78547
449 3 0.489377 0.796736 0.802035
450 4 0.488738 0.796948 0.776779
451 1 0.472843 0.783736 0.801961
452 3 0.46893 0.768617 0.79587
453 4 0.461981 0.788258 0.798915
454 1 0.476118 0.758655 0.813326
455 3 0.465016 0.745726 0.816818
456 4 0.483067 0.75597 0.822389
457 1 0.446246 0.756818 0.819789
458 3 0.429633 0.755475 0.811246
459 4 0.441534 0.763742 0.827663
460 1 0.438339 0.759361 0.792304
461 3 0.420447 0.756677 0.787773
462 4 0.445687 0.762046 0.784133
463 1 0.421486 0.737177 0.786362
464 3 0.409505 0.727144 0.795276
465 4 0.426198 0.728911 0.780568
466 1 0.415575 0.731454 0.813549
467 3 0.403834 0.736117 0.826474
468 4 0.424521 0.727709 0.820458
469 1 0.403674 0.756041 0.820978
470 3 0.386182 0.757948 0.827737
471 4 0.408466 0.765649 0.816818
472 1 0.375399 0.752861 0.810949
473 3 0.363578 0.751095 0.79743
474 5 0.3873 0.698991 0.766874
475 1 0.375319 0.762823 0.78443
476 3 0.393371 0.758443 0.779676
477 4 0.373882 0.773421 0.783836
478 1 0.388738 0.755617 0.759471
479 3 0.39401 0.761269 0.743649
480 4 0.384904 0.746432 0.755237
481 1 0.386661 0.779992 0.747214
482 3 0.397364 0.787693 0.735329
483 4 0.379553 0.788258 0.751077
484 1 0.416374 0.787198 0.74558
485 3 0.413179 0.804084 0.744466
486 4 0.426278 0.780981 0.748997
487 1 0.42508 0.809736 0.760437
488 3 0.434824 0.817225 0.746843
489 4 0.431789 0.810301 0.769871
490 1 0.424201 0.835877 0.752191
491 3 0.442971 0.836654 0.756574
492 4 0.419728 0.842023 0.760957
493 1 0.448882 0.843719 0.738449
494 3 0.447204 0.860887 0.740975
495 4 0.449361 0.84379 0.726712
496 1 0.467412 0.863007 0.748551
497 3 0.479553 0.874452 0.743649
498 4 0.473722 0.861099 0.758431
499 1 0.483626 0.865338 0.724781
500 3 0.484505 0.876431 0.711261
501 4 0.48722 0.856224 0.719284
502 1 0.461422 0.879115 0.710964
503 3 0.465895 0.889431 0.697519
504 4 0.449601 0.879398 0.714901
505 1 0.475319 0.903349 0.70881
506 3 0.486821 0.904338 0.693433
507 4 0.478035 0.911474 0.716461
508 1 0.503115 0.894305 0.699302
509 3 0.505192 0.88724 0.682959
510 4 0.512859 0.892257 0.705022
511 1 0.492891 0.870637 0.687119
512 3 0.486901 0.875371 0.670628
513 5 0.494489 0.80129 0.644429
514 1 0.465415 0.870779 0.674417
515 3 0.460543 0.882719 0.661343
516 4 0.454633 0.867529 0.679245
517 1 0.465735 0.897626 0.671817
518 3 0.47492 0.901865 0.656143
519 4 0.463179 0.904267 0.680805
520 1 0.493211 0.908012 0.666914
521 3 0.501997 0.904126 0.651686
522 4 0.500559 0.912534 0.673971
523 1 0.507348 0.886039 0.654658
524 3 0.504872 0.877279 0.639801
525 4 0.513099 0.878268 0.660972
526 1 0.482268 0.876219 0.640469
527 3 0.474361 0.883213 0.626059
528 4 0.478355 0.867458 0.646338
529 1 0.456869 0.890278 0.636532
530 3 0.455272 0.902713 0.624647
531 4 0.448163 0.891621 0.645446
532 1 0.471246 0.913876 0.631481
533 3 0.474121 0.917691 0.615213
534 4 0.477476 0.919104 0.639355
535 1 0.491294 0.90568 0.610608
536 3 0.484505 0.903631 0.593968
537 4 0.501358 0.90024 0.612465
538 1 0.46869 0.890702 0.599614
539 3 0.459026 0.899039 0.587357
540 4 0.461981 0.882295 0.604368
541 1 0.450719 0.912746 0.600505
542 3 0.449441 0.922283 0.586688
543 4 0.448243 0.917974 0.610088
544 1 0.470527 0.928501 0.58654
545 3 0.466374 0.928995 0.569158
546 4 0.48155 0.931115 0.590031
547 1 0.471086 0.910131 0.566186
548 3 0.458307 0.909496 0.553261
549 4 0.477236 0.900382 0.566706
550 1 0.439537 0.907447 0.565443
551 3 0.429473 0.917267 0.55497
552 4 0.433147 0.902006 0.573317
553 1 0.43738 0.934435 0.562695
554 3 0.43754 0.939452 0.54613
555 4 0.441214 0.942066 0.5699
556 1 0.457907 0.932245 0.541376
557 3 0.451917 0.928854 0.525182
558 4 0.469409 0.92843 0.543456
559 1 0.441693 0.912534 0.530456
560 3 0.427476 0.915077 0.518794
561 4 0.439936 0.902925 0.535582
562 1 0.415655 0.927936 0.530308
563 3 0.41238 0.935354 0.514411
564 4 0.409824 0.93274 0.539222
565 1 0.431789 0.946164 0.515525
566 3 0.431709 0.94468 0.497549
567 4 0.441613 0.951462 0.520576
568 1 0.442652 0.927441 0.498143
569 3 0.431629 0.923979 0.484401
570 4 0.448962 0.918751 0.501337
571 1 0.413978 0.917409 0.492869
572 3 0.403355 0.923838 0.479795
573 4 0.408466 0.911474 0.500891
574 1 0.402796 0.941501 0.487818
575 3 0.404553 0.949272 0.47155
576 4 0.40008 0.949202 0.495394
577 1 0.426198 0.946941 0.47155
578 3 0.424441 0.941642 0.454242
579 4 0.43778 0.946446 0.475932
580 1 0.422045 0.922707 0.457807
581 3 0.410304 0.923838 0.443768
582 4 0.424441 0.912887 0.462413
583 1 0.392332 0.930055 0.455133
584 3 0.386581 0.93924 0.440351
585 4 0.384185 0.931327 0.463007
586 1 0.396326 0.955772 0.446145
587 3 0.405351 0.962201 0.432179
588 4 0.395048 0.963261 0.45387
589 1 0.425559 0.959799 0.438716
590 3 0.426597 0.945033 0.4301
591 4 0.434744 0.961354 0.445996
592 1 0.438179 0.953229 0.412866
593 3 0.451038 0.945316 0.423488
594 4 0.442652 0.960718 0.405958
595 1 0.455112 0.931256 0.410712
596 3 0.469968 0.942631 0.408483
597 4 0.454153 0.923908 0.402615
598 1 0.485383 0.931963 0.41814
599 3 0.498243 0.942207 0.409226
600 4 0.491933 0.924332 0.424305
601 1 0.496965 0.932387 0.391918
602 3 0.50024 0.947223 0.383895
603 4 0.496006 0.924474 0.384415
604 1 0.478914 0.952876 0.383375
605 3 0.486102 0.968207 0.386198
606 4 0.466853 0.95224 0.381667
607 1 0.482588 0.966723 0.408335
608 3 0.49984 0.970538 0.40358
609 4 0.483067 0.962837 0.418734
610 1 0.498163 0.990109 0.409449
611 3 0.508067 0.982478 0.422003
612 4 0.49385 0.999505 0.413534
613 1 0.527476 0.991946 0.416951
614 3 0.53155 0.977109 0.408855
615 4 0.528594 0.996185 0.427425
616 1 0.545288 0.970468 0.423711
617 3 0.557029 0.97287 0.409672
618 5 0.539457 0.897346 0.404075
619 1 0.559505 0.953511 0.406106
620 3 0.544089 0.947647 0.398529
621 4 0.564297 0.944185 0.409969
622 1 0.550479 0.954924 0.379438
623 3 0.556709 0.941642 0.370004
624 4 0.554153 0.962837 0.372382
625 1 0.536821 0.932175 0.369782
626 3 0.528275 0.93705 0.354628
627 4 0.526278 0.927582 0.37409
628 1 0.541214 0.924403 0.343114
629 3 0.52484 0.915784 0.343634
630 4 0.549521 0.916207 0.341257
631 1 0.517332 0.919528 0.32536
632 3 0.526518 0.907729 0.315109
633 4 0.51214 0.925604 0.316966
634 1 0.514776 0.892822 0.322092
635 3 0.514856 0.887311 0.305898
636 4 0.509904 0.886039 0.329743
637 1 0.495687 0.89692 0.300104
638 3 0.496246 0.913947 0.296836
639 4 0.483147 0.895507 0.300253
640 1 0.503754 0.911544 0.277076
641 3 0.494728 0.916702 0.262294
642 4 0.513658 0.908083 0.270762
643 1 0.47476 0.91543 0.269871
644 3 0.469329 0.915572 0.286733
645 4 0.470128 0.907164 0.263482
646 1 0.453035 0.929843 0.282276
647 3 0.456789 0.942631 0.293121
648 4 0.447284 0.924544 0.29119
649 1 0.473722 0.949626 0.282053
650 3 0.471965 0.964038 0.291339
651 4 0.483786 0.950049 0.274773
652 1 0.458466 0.961778 0.267939
653 3 0.445048 0.953087 0.275219
654 4 0.45607 0.971527 0.264151
655 1 0.435942 0.94793 0.256648
656 3 0.446565 0.934012 0.253157
657 4 0.428994 0.95231 0.247883
658 1 0.430591 0.92087 0.253083
659 3 0.428594 0.924191 0.235998
660 4 0.419569 0.915784 0.25598
661 1 0.438419 0.90674 0.229684
662 3 0.423163 0.897344 0.235255
663 4 0.449441 0.901088 0.227901
664 1 0.420288 0.889501 0.216758
665 3 0.434984 0.880528 0.209627
666 4 0.414217 0.892327 0.207027
667 1 0.426597 0.862371 0.214307
668 3 0.41869 0.864208 0.199079
669 4 0.422284 0.853964 0.22077
670 1 0.432109 0.852197 0.188679
671 3 0.442572 0.837572 0.192022
672 4 0.436901 0.859474 0.181399
673 1 0.442412 0.831496 0.172931
674 3 0.45615 0.840469 0.164314
675 4 0.437061 0.827257 0.16372
676 1 0.473003 0.831708 0.17464
677 3 0.478674 0.844708 0.164092
678 4 0.475639 0.823301 0.167509
679 1 0.490895 0.852833 0.18036
680 3 0.500479 0.84704 0.194548
681 4 0.484904 0.861877 0.183999
682 1 0.520128 0.853822 0.189348
683 3 0.526518 0.8688 0.183108
684 4 0.525958 0.846051 0.183628
685 1 0.538179 0.87311 0.199822
686 3 0.553994 0.863855 0.202273
687 4 0.535863 0.87742 0.210296
688 1 0.566054 0.876784 0.190611
689 3 0.570208 0.891974 0.197445
690 4 0.567492 0.877561 0.178948
691 1 0.590575 0.886039 0.204873
692 3 0.591693 0.895436 0.189645
693 4 0.60032 0.87961 0.206062
694 1 0.597764 0.904903 0.213044
695 3 0.579233 0.910555 0.214233
696 4 0.604313 0.913876 0.215347
697 1 0.57524 0.901088 0.231615
698 3 0.580431 0.910202 0.245134
699 4 0.573722 0.892045 0.238003
700 1 0.564617 0.92412 0.2435
701 3 0.549441 0.920588 0.253454
702 4 0.559984 0.93168 0.236369
703 1 0.558147 0.92843 0.271134
704 3 0.548562 0.942278 0.266157
705 4 0.566693 0.931963 0.278042
706 1 0.532268 0.939876 0.278785
707 3 0.524121 0.955066 0.278636
708 4 0.525799 0.935778 0.287996
709 1 0.542812 0.964886 0.285767
710 3 0.535623 0.962201 0.302258
711 5 0.540895 0.9063 0.264814
712 1 0.534984 0.980853 0.306195
713 3 0.519808 0.984739 0.316298
714 4 0.538498 0.991381 0.306864
715 1 0.505192 0.975272 0.302184
716 3 0.510144 0.96312 0.314366
717 4 0.49992 0.969691 0.293641
718 1 0.493211 0.966017 0.327069
719 3 0.483147 0.952028 0.331674
720 4 0.488259 0.971174 0.336057
721 1 0.474201 0.949696 0.312361
722 3 0.460144 0.951392 0.324766
723 5 0.48115 0.879299 0.287332
724 1 0.453035 0.933729 0.323355
725 3 0.461821 0.918327 0.325806
726 4 0.442652 0.930832 0.317635
727 1 0.456949 0.916631 0.34512
728 3 0.451278 0.909708 0.360051
729 4 0.469089 0.916278 0.348537
730 1 0.43115 0.920376 0.359233
731 3 0.425958 0.931397 0.345565
732 4 0.432827 0.924262 0.369262
733 1 0.405192 0.932316 0.352028
734 3 0.398403 0.934859 0.368742
735 4 0.397923 0.926876 0.344674
736 1 0.385383 0.948919 0.365547
737 3 0.370208 0.939452 0.361388
738 4 0.382748 0.959517 0.364136
739 1 0.364377 0.936484 0.381518
740 3 0.360463 0.945952 0.395409
741 4 0.36845 0.928148 0.388204
742 1 0.340495 0.951604 0.387907
743 3 0.325559 0.940158 0.386718
744 4 0.337939 0.959375 0.380478
745 1 0.316134 0.946234 0.40358
746 3 0.313259 0.958245 0.415466
747 4 0.31845 0.938251 0.411232
748 1 0.291374 0.959658 0.412272
749 3 0.289297 0.963615 0.429877
750 4 0.280591 0.95987 0.406775
751 1 0.289776 0.944609 0.434557
752 3 0.308946 0.942348 0.436116
753 4 0.285144 0.934294 0.434334
754 1 0.308866 0.947506 0.456322
755 3 0.313738 0.941642 0.472515
756 4 0.309345 0.95775 0.460333
757 1 0.299521 0.92737 0.47311
758 3 0.310863 0.9208 0.48596
759 4 0.289776 0.9208 0.470212
760 1 0.325319 0.913664 0.473332
761 3 0.338738 0.917762 0.484772
762 4 0.33139 0.909284 0.464493
763 1 0.338498 0.936414 0.481503
764 3 0.338419 0.94037 0.498886
765 4 0.340815 0.944892 0.474595
766 1 0.317013 0.939946 0.501189
767 3 0.319329 0.934718 0.518125
768 4 0.304792 0.940158 0.499777
769 1 0.323003 0.91536 0.511811
770 3 0.335942 0.910697 0.523845
771 4 0.319808 0.906387 0.50624
772 1 0.351677 0.922071 0.516268
773 3 0.354792 0.927441 0.532982
774 4 0.359824 0.926805 0.509285
775 1 0.338658 0.942066 0.531347
776 3 0.336581 0.939946 0.548507
777 5 0.342412 0.886275 0.500932
778 1 0.321965 0.923838 0.545907
779 3 0.329712 0.917055 0.560838
780 4 0.31262 0.918186 0.541079
781 1 0.345288 0.907305 0.549993
782 3 0.354712 0.908789 0.565221
783 4 0.351518 0.901512 0.542193
784 1 0.36246 0.927724 0.558609
785 3 0.361981 0.931397 0.576512
786 4 0.366294 0.936626 0.552221
787 1 0.340256 0.936979 0.575843
788 3 0.339696 0.932387 0.593374
789 4 0.329073 0.939664 0.571683
790 1 0.33722 0.912675 0.5881
791 3 0.346486 0.908012 0.602882
792 4 0.333147 0.904126 0.581637
793 1 0.367013 0.909213 0.593151
794 3 0.372125 0.91543 0.608602
795 4 0.376278 0.909354 0.585054
796 1 0.36869 0.934082 0.605334
797 3 0.366534 0.932881 0.622864
798 4 0.366773 0.943973 0.600579
799 1 0.345128 0.928359 0.623087
800 3 0.350479 0.920164 0.637795
801 4 0.333626 0.928148 0.619522
802 1 0.355831 0.90349 0.628881
803 3 0.36901 0.900735 0.641361
804 4 0.355192 0.894871 0.62227
805 1 0.385224 0.912039 0.631927
806 3 0.39393 0.917479 0.646932
807 4 0.391134 0.916207 0.622493
808 1 0.377875 0.931963 0.650201
809 3 0.383227 0.933305 0.666617
810 4 0.369249 0.939028 0.648938
811 1 0.371565 0.919599 0.675234
812 3 0.384585 0.916561 0.687788
813 4 0.361741 0.913452 0.677091
814 1 0.398802 0.907305 0.676497
815 3 0.409505 0.918398 0.685485
816 4 0.403355 0.899604 0.670108
817 1 0.414137 0.929066 0.66788
818 3 0.41885 0.939946 0.681474
819 4 0.413578 0.933093 0.657183
820 1 0.398323 0.946164 0.685337
821 3 0.405032 0.947859 0.701902
822 4 0.387141 0.950049 0.685262
823 1 0.403674 0.929278 0.707399
824 3 0.419089 0.933022 0.718021
825 4 0.40024 0.918751 0.708661
826 1 0.433786 0.927936 0.70361
827 3 0.445927 0.940229 0.70829
828 4 0.438738 0.921294 0.695513
829 1 0.439457 0.953229 0.694919
830 3 0.444489 0.96425 0.707399
831 4 0.435942 0.958174 0.685634
832 1 0.426438 0.962272 0.718541
833 3 0.437939 0.963544 0.732506
834 4 0.414457 0.962131 0.721364
835 1 0.442252 0.94355 0.733546
836 3 0.458626 0.948566 0.741049
837 4 0.441374 0.933093 0.731095
838 1 0.46901 0.953582 0.723147
839 3 0.477396 0.96524 0.733769
840 4 0.472444 0.953794 0.712153
841 1 0.460383 0.979017 0.732209
842 3 0.466054 0.983256 0.74818
843 4 0.451278 0.984527 0.727306
844 1 0.448882 0.973718 0.75754
845 3 0.455751 0.959163 0.762442
846 4 0.437141 0.971739 0.758505
847 1 0.466853 0.965593 0.779453
848 3 0.46262 0.955914 0.792824
849 4 0.476997 0.972305 0.782127
850 1 0.444489 0.966864 0.798024
851 3 0.427077 0.960435 0.800475
852 4 0.441693 0.976826 0.801441
853 1 0.426118 0.952381 0.781459
854 3 0.419249 0.968278 0.779082
855 4 0.41869 0.945669 0.78807
856 1 0.403594 0.964321 0.766825
857 3 0.391054 0.958669 0.778933
858 4 0.401997 0.962696 0.75494
859 1 0.376278 0.973576 0.774699
860 3 0.366454 0.960435 0.766379
861 4 0.371565 0.982055 0.768831
862 1 0.356789 0.95443 0.784802
863 3 0.344249 0.944892 0.775888
864 4 0.353275 0.95549 0.796018
865 1 0.332348 0.961707 0.769054
866 3 0.330272 0.958174 0.751597
867 4 0.32516 0.970397 0.770762
868 1 0.349361 0.963191 0.745357
869 3 0.349601 0.948566 0.7357
870 4 0.358626 0.970256 0.742089
871 1 0.361581 0.939734 0.7513
872 3 0.353115 0.925463 0.746769
873 4 0.370447 0.939028 0.759174
874 1 0.336821 0.926169 0.760288
875 3 0.328195 0.917691 0.747363
876 5 0.345367 0.855628 0.720597
877 1 0.320607 0.932952 0.737186
878 3 0.322604 0.922495 0.723221
879 4 0.31877 0.943338 0.734289
880 1 0.344489 0.926452 0.721438
881 3 0.346885 0.910909 0.714975
882 4 0.355032 0.932245 0.721512
883 1 0.345927 0.901441 0.733101
884 3 0.335942 0.889713 0.723667
885 4 0.347045 0.89918 0.744614
886 1 0.316294 0.898898 0.725747
887 3 0.311102 0.893952 0.708884
888 4 0.306869 0.904126 0.730872
889 1 0.320767 0.909284 0.699005
890 3 0.326038 0.897061 0.687416
891 4 0.323722 0.918751 0.69581
892 1 0.346006 0.893811 0.695068
893 3 0.341693 0.879115 0.687268
894 4 0.35599 0.8948 0.702124
895 1 0.329872 0.872545 0.703239
896 3 0.320288 0.863996 0.690833
897 4 0.326757 0.868306 0.713416
898 1 0.30599 0.877985 0.686822
899 3 0.305911 0.872616 0.669366
900 4 0.296006 0.884202 0.689199
901 1 0.32484 0.882224 0.664314
902 3 0.329313 0.868164 0.655846
903 4 0.333546 0.889854 0.663646
904 1 0.33746 0.858203 0.672486
905 3 0.330032 0.845556 0.661566
906 5 0.333866 0.79337 0.635265
907 1 0.308866 0.846898 0.668994
908 3 0.301438 0.841882 0.653246
909 4 0.299361 0.848877 0.675531
910 1 0.301917 0.861099 0.645521
911 3 0.30639 0.854246 0.630367
912 4 0.301438 0.87198 0.645966
913 1 0.328834 0.852762 0.634007
914 3 0.327716 0.840257 0.622419
915 4 0.340016 0.853398 0.638464
916 1 0.321645 0.82648 0.636904
917 3 0.31278 0.815953 0.625984