ITEM: TIMESTEP
0
ITEM: NUMBER OF ATOMS
8634
ITEM: BOX BOUNDS ss ss ss
29.76 165.12
-1.36 155.45
-0.5 126.87
ITEM: ATOMS id type xs ys zs
1 1 0.298316 0.893119 0.820915
2 3 0.286939 0.897966 0.80804
3 4 0.291076 0.890823 0.829473
4 1 0.292627 0.887061 0.792494
5 3 0.279403 0.87826 0.79854
6 4 0.299572 0.879918 0.786763
7 1 0.264184 0.8884 0.791709
8 3 0.263002 0.878515 0.777813
9 4 0.258865 0.897009 0.788961
10 1 0.248966 0.86844 0.786684
11 3 0.248227 0.863402 0.76847
12 4 0.240322 0.865315 0.793515
13 1 0.23781 0.876092 0.760854
14 3 0.24734 0.874753 0.745073
15 4 0.230718 0.884127 0.760148
16 1 0.262411 0.884191 0.752061
17 3 0.272089 0.874689 0.741933
18 4 0.268469 0.891461 0.757871
19 1 0.275044 0.862891 0.758891
20 3 0.275783 0.852369 0.745309
21 4 0.275044 0.859512 0.77059
22 1 0.25591 0.850584 0.743582
23 3 0.256206 0.849181 0.724739
24 4 0.245124 0.850584 0.747743
25 1 0.256353 0.866399 0.721127
26 3 0.267583 0.862254 0.708095
27 4 0.253398 0.876092 0.721991
28 1 0.284648 0.862891 0.721127
29 3 0.29211 0.851668 0.710921
30 4 0.291667 0.865634 0.730627
31 1 0.280437 0.839487 0.719871
32 3 0.279846 0.832919 0.703698
33 4 0.275266 0.83413 0.728115
34 1 0.264037 0.842612 0.695611
35 3 0.274453 0.841783 0.679987
36 4 0.254137 0.846693 0.695219
37 1 0.282949 0.858364 0.683992
38 3 0.296395 0.852752 0.673707
39 4 0.287012 0.866781 0.689487
40 1 0.304817 0.844525 0.691136
41 3 0.310358 0.833174 0.678731
42 4 0.309249 0.84274 0.701971
43 1 0.29307 0.823672 0.680145
44 3 0.293957 0.819718 0.662165
45 4 0.283614 0.819909 0.684855
46 1 0.285757 0.834704 0.654393
47 3 0.296469 0.833174 0.639004
48 4 0.279846 0.842931 0.653372
49 1 0.313978 0.838021 0.648347
50 3 0.320996 0.827562 0.636728
51 4 0.321365 0.842357 0.655806
52 1 0.318853 0.81417 0.651802
53 3 0.316933 0.806454 0.635236
54 4 0.317524 0.80926 0.662401
55 1 0.297134 0.808749 0.634215
56 3 0.300532 0.808749 0.615373
57 4 0.286126 0.810216 0.636963
58 1 0.306516 0.824373 0.613174
59 3 0.318558 0.819527 0.600141
60 4 0.307181 0.834003 0.614038
61 1 0.332668 0.814298 0.616393
62 3 0.335624 0.804285 0.602104
63 4 0.338357 0.812576 0.626443
64 1 0.323138 0.792488 0.609877
65 3 0.320405 0.789618 0.591584
66 4 0.317524 0.785855 0.616629
67 1 0.30526 0.802245 0.588914
68 3 0.309914 0.800969 0.570935
69 4 0.297429 0.809196 0.589778
70 1 0.326758 0.811938 0.573212
71 3 0.334885 0.803138 0.560729
72 5 0.319592 0.767724 0.531266
73 1 0.341386 0.791659 0.575175
74 3 0.338061 0.782412 0.559708
75 4 0.345006 0.78694 0.585381
76 1 0.318262 0.779925 0.564497
77 3 0.318484 0.778586 0.545576
78 4 0.308437 0.779861 0.569914
79 1 0.316933 0.796123 0.542043
80 3 0.327054 0.794018 0.526969
81 4 0.314642 0.806199 0.542357
82 1 0.344637 0.792488 0.536469
83 3 0.347222 0.781073 0.524299
84 4 0.354019 0.793189 0.542592
85 1 0.340056 0.767872 0.537254
86 3 0.335771 0.76124 0.520295
87 4 0.336141 0.762706 0.546989
88 1 0.317671 0.769913 0.518725
89 3 0.317007 0.773866 0.500118
90 4 0.30755 0.771571 0.522886
91 1 0.330157 0.786557 0.500981
92 3 0.337692 0.781519 0.484258
93 4 0.336067 0.794656 0.503965
94 1 0.350399 0.771061 0.492895
95 3 0.338061 0.760092 0.490304
96 4 0.358378 0.766405 0.499725
97 1 0.342716 0.756584 0.470911
98 3 0.358304 0.752057 0.466436
99 4 0.338505 0.759518 0.460234
100 1 0.353797 0.734711 0.473031
101 3 0.350177 0.7298 0.454424
102 4 0.349069 0.727568 0.479312
103 1 0.369238 0.727122 0.448065
104 3 0.384161 0.722913 0.456465
105 4 0.368794 0.734838 0.439742
106 1 0.392509 0.715835 0.438643
107 3 0.39901 0.729099 0.438486
108 4 0.393617 0.710733 0.428201
109 1 0.417479 0.72489 0.450185
110 3 0.422134 0.736114 0.46149
111 4 0.422872 0.729354 0.440371
112 1 0.403295 0.737198 0.471304
113 3 0.413342 0.74332 0.48473
114 4 0.393839 0.734201 0.4768
115 1 0.422281 0.727951 0.490696
116 3 0.437131 0.732861 0.497448
117 4 0.423537 0.718321 0.490932
118 1 0.443041 0.741471 0.480097
119 3 0.448064 0.755883 0.479705
120 4 0.448877 0.738665 0.47044
121 1 0.428044 0.762005 0.479862
122 3 0.423537 0.762388 0.497841
123 4 0.419031 0.761941 0.472796
124 1 0.424867 0.779733 0.499411
125 3 0.413268 0.779733 0.513465
126 4 0.4276 0.788917 0.497998
127 1 0.397015 0.776991 0.500903
128 3 0.390366 0.769275 0.516527
129 4 0.389406 0.776672 0.491953
130 1 0.399084 0.754671 0.513229
131 3 0.399232 0.7555 0.532936
132 4 0.403738 0.746253 0.507969
133 1 0.417036 0.764109 0.533485
134 3 0.410313 0.771188 0.549266
135 4 0.427748 0.767362 0.531758
136 1 0.400414 0.783432 0.53796
137 3 0.389258 0.781838 0.552485
138 4 0.397385 0.789682 0.528774
139 1 0.377955 0.768637 0.541729
140 3 0.374409 0.764173 0.559394
141 4 0.373301 0.762898 0.532936
142 1 0.392952 0.75448 0.560022
143 3 0.393913 0.756457 0.578865
144 4 0.402187 0.749442 0.557039
145 1 0.400488 0.773037 0.576745
146 3 0.390293 0.776481 0.591113
147 4 0.406989 0.780626 0.573055
148 1 0.373966 0.780626 0.579257
149 3 0.364731 0.774249 0.593782
150 4 0.368499 0.783113 0.569679
151 1 0.36776 0.757605 0.587501
152 3 0.367982 0.754607 0.606108
153 4 0.36872 0.749123 0.580592
154 1 0.387707 0.758179 0.609563
155 3 0.380762 0.763918 0.62605
156 4 0.398345 0.759582 0.605794
157 1 0.376404 0.779606 0.617728
158 3 0.363549 0.779925 0.629976
159 4 0.378029 0.787258 0.610112
160 1 0.350473 0.770168 0.618592
161 3 0.345006 0.766533 0.63555
162 4 0.345301 0.765895 0.609563
163 1 0.35823 0.753523 0.639554
164 3 0.356531 0.757286 0.657376
165 4 0.366061 0.746509 0.637356
166 1 0.369238 0.771953 0.656591
167 3 0.358082 0.778777 0.668682
168 4 0.377807 0.777757 0.65243
169 1 0.344341 0.783687 0.651645
170 3 0.331413 0.783305 0.663814
171 5 0.354093 0.741322 0.60721
172 1 0.330009 0.765895 0.66507
173 3 0.328236 0.768573 0.682657
174 4 0.329787 0.756393 0.661694
175 1 0.348774 0.765257 0.687996
176 3 0.346262 0.773229 0.703619
177 4 0.359412 0.762069 0.686425
178 1 0.347739 0.789108 0.693805
179 3 0.335624 0.793126 0.70778
180 4 0.349143 0.79625 0.685876
181 1 0.319075 0.789235 0.696082
182 3 0.309914 0.791467 0.711078
183 4 0.312278 0.786111 0.687368
184 1 0.314569 0.777374 0.721991
185 3 0.315381 0.786557 0.737222
186 4 0.316415 0.767744 0.724582
187 1 0.337249 0.788406 0.73628
188 3 0.333777 0.801097 0.745073
189 4 0.347739 0.787195 0.732355
190 1 0.329713 0.81028 0.726545
191 3 0.319666 0.818251 0.739185
192 4 0.330378 0.814744 0.715632
193 1 0.303339 0.808686 0.735181
194 3 0.300089 0.811747 0.753945
195 4 0.296395 0.80199 0.729921
196 1 0.311244 0.79861 0.76109
197 3 0.31516 0.808048 0.775928
198 4 0.31708 0.790128 0.762346
199 1 0.330157 0.816657 0.764937
200 3 0.323655 0.827881 0.774672
201 4 0.338874 0.819527 0.758028
202 1 0.309914 0.83413 0.759598
203 3 0.299719 0.839105 0.773652
204 4 0.305851 0.835725 0.748999
205 1 0.288933 0.824501 0.7753
206 3 0.282284 0.818379 0.791474
207 4 0.281693 0.819144 0.767999
208 1 0.29935 0.811109 0.796969
209 3 0.317302 0.813724 0.800188
210 4 0.298833 0.801671 0.794379
211 1 0.314938 0.813213 0.823114
212 3 0.323729 0.800523 0.818482
213 5 0.307255 0.766903 0.778755
214 1 0.34146 0.808112 0.827039
215 3 0.339096 0.795612 0.838423
216 4 0.348257 0.814106 0.833399
217 1 0.347665 0.784198 0.82382
218 3 0.357639 0.771826 0.818325
219 4 0.33747 0.780754 0.821229
220 1 0.370789 0.782029 0.806391
221 3 0.374704 0.769211 0.796812
222 4 0.377438 0.789809 0.804742
223 1 0.362515 0.770678 0.780639
224 3 0.36909 0.760411 0.769726
225 4 0.353502 0.774122 0.774986
226 1 0.386155 0.76851 0.765643
227 3 0.401152 0.773548 0.775065
228 4 0.389406 0.774568 0.756929
229 1 0.407875 0.75786 0.779697
230 3 0.415411 0.762388 0.763759
231 4 0.408171 0.748039 0.779147
232 1 0.430851 0.771188 0.773887
233 3 0.439716 0.770168 0.757557
234 4 0.438239 0.77444 0.782759
235 1 0.444371 0.753077 0.759127
236 3 0.441489 0.751865 0.740755
237 4 0.445479 0.743766 0.763681
238 1 0.421321 0.749251 0.743111
239 3 0.418661 0.757222 0.726623
240 4 0.410904 0.746317 0.74735
241 1 0.417923 0.772655 0.737301
242 3 0.422872 0.779096 0.72097
243 4 0.418292 0.778777 0.74633
244 1 0.442524 0.775206 0.724111
245 3 0.44245 0.775652 0.705268
246 4 0.452497 0.771252 0.727801
247 1 0.434397 0.759327 0.702756
248 3 0.42568 0.765066 0.687525
249 4 0.433141 0.750207 0.705111
250 1 0.41083 0.772846 0.699537
251 3 0.410904 0.784389 0.686818
252 4 0.402778 0.774249 0.708016
253 1 0.425901 0.793508 0.694983
254 3 0.432181 0.795102 0.677946
255 4 0.431811 0.798418 0.703462
256 1 0.443188 0.780116 0.677711
257 3 0.442376 0.781391 0.658554
258 4 0.449468 0.772463 0.681401
259 1 0.422577 0.776609 0.657533
260 3 0.422207 0.786493 0.643009
261 4 0.411791 0.772974 0.659103
262 1 0.417923 0.800842 0.656041
263 3 0.427896 0.808367 0.643558
264 4 0.414229 0.806135 0.665227
265 1 0.446439 0.804285 0.653294
266 3 0.453753 0.805816 0.636335
267 4 0.453975 0.803138 0.662087
268 1 0.44932 0.787514 0.631153
269 3 0.447917 0.792233 0.614116
270 4 0.446661 0.777884 0.633901
271 1 0.427674 0.796123 0.615922
272 3 0.431738 0.806071 0.602261
273 4 0.416741 0.79574 0.618984
274 1 0.437204 0.818953 0.616472
275 3 0.448951 0.822014 0.603046
276 4 0.437869 0.825458 0.626207
277 1 0.4638 0.812257 0.611604
278 3 0.470154 0.814744 0.593782
279 4 0.469932 0.805306 0.617021
280 1 0.456413 0.803584 0.583889
281 3 0.456265 0.812002 0.568737
282 4 0.449099 0.796059 0.583026
283 1 0.445479 0.825713 0.57753
284 3 0.456486 0.834258 0.568187
285 4 0.438017 0.830814 0.584596
286 1 0.468898 0.836362 0.585695
287 3 0.480866 0.838084 0.57227
288 4 0.472592 0.837638 0.596608
289 1 0.487367 0.820611 0.572662
290 3 0.490618 0.820675 0.554212
291 4 0.488475 0.8113 0.577294
292 1 0.471114 0.820675 0.548167
293 3 0.473109 0.831261 0.535919
294 4 0.461436 0.815701 0.546125
295 1 0.47104 0.844589 0.548716
296 3 0.483008 0.851285 0.53796
297 4 0.466608 0.850647 0.557196
298 1 0.498966 0.843441 0.549423
299 3 0.507979 0.842995 0.532621
300 4 0.505984 0.839806 0.557745
301 1 0.500517 0.827626 0.525712
302 3 0.501478 0.832983 0.508754
303 4 0.497119 0.818379 0.527047
304 1 0.482934 0.840954 0.508833
305 3 0.491135 0.852178 0.499019
306 4 0.471483 0.842485 0.509225
307 1 0.498153 0.860468 0.516448
308 3 0.512264 0.864677 0.505849
309 4 0.500517 0.863976 0.527989
310 1 0.521794 0.84867 0.509539
311 3 0.526005 0.849308 0.490696
312 4 0.525561 0.841018 0.515349
313 1 0.509161 0.841911 0.483709
314 3 0.511008 0.851285 0.468635
315 4 0.500296 0.83598 0.481668
316 1 0.501551 0.86506 0.479469
317 3 0.512264 0.872776 0.468399
318 4 0.494829 0.870863 0.486692
319 1 0.52859 0.871373 0.481746
320 3 0.538933 0.872011 0.467143
321 4 0.533392 0.869842 0.49211
322 1 0.537899 0.85441 0.462746
323 3 0.539672 0.857981 0.444767
324 4 0.538342 0.844908 0.464317
325 1 0.518469 0.859193 0.441784
326 3 0.515219 0.869587 0.42828
327 4 0.507462 0.857726 0.444689
328 1 0.522606 0.883617 0.439821
329 3 0.520612 0.89178 0.423883
330 4 0.526374 0.889484 0.448457
331 1 0.536791 0.884255 0.413834
332 3 0.54307 0.870416 0.415482
333 4 0.54477 0.891142 0.412185
334 1 0.548242 0.868057 0.395305
335 3 0.562869 0.87284 0.38714
336 4 0.542036 0.860277 0.394598
337 1 0.540706 0.869524 0.371595
338 3 0.534057 0.88164 0.380309
339 4 0.542184 0.871819 0.359661
340 1 0.514111 0.876475 0.377797
341 3 0.516992 0.876475 0.397346
342 4 0.504876 0.871947 0.374656
343 1 0.507092 0.890377 0.400958
344 3 0.490248 0.8884 0.404334
345 4 0.505393 0.90007 0.399859
346 1 0.493499 0.875199 0.418701
347 3 0.486628 0.862573 0.410379
348 4 0.482861 0.878005 0.422391
349 1 0.505836 0.854665 0.407396
350 3 0.502955 0.846247 0.423098
351 4 0.516918 0.854537 0.40614
352 1 0.493425 0.832791 0.410772
353 3 0.50857 0.825139 0.408259
354 4 0.485668 0.830049 0.402528
355 1 0.503989 0.812703 0.423098
356 3 0.49505 0.80301 0.412577
357 4 0.503398 0.81079 0.435189
358 1 0.511746 0.792743 0.408259
359 3 0.518469 0.784261 0.422313
360 4 0.519947 0.793572 0.400094
361 1 0.505689 0.769658 0.416974
362 3 0.500443 0.774122 0.434875
363 4 0.51448 0.763599 0.419487
364 1 0.481605 0.767298 0.432833
365 3 0.482713 0.765002 0.451519
366 4 0.47333 0.76226 0.428123
367 1 0.494164 0.749952 0.449792
368 3 0.500296 0.754607 0.465887
369 4 0.498966 0.742236 0.446494
370 1 0.51219 0.767362 0.458664
371 3 0.508053 0.775907 0.473738
372 4 0.51906 0.773037 0.452226
373 1 0.489953 0.781774 0.466515
374 3 0.482565 0.780244 0.483473
375 4 0.482639 0.786302 0.458664
376 1 0.478797 0.762005 0.481668
377 3 0.484855 0.76124 0.499254
378 4 0.475103 0.753523 0.476957
379 1 0.504211 0.760474 0.494308
380 3 0.508939 0.76666 0.510089
381 4 0.513815 0.757286 0.489676
382 1 0.503177 0.783305 0.50318
383 3 0.496232 0.785473 0.520217
384 4 0.501478 0.791467 0.496506
385 1 0.478206 0.77629 0.51637
386 3 0.479979 0.771698 0.533956
387 4 0.468602 0.77444 0.510481
388 1 0.490765 0.757031 0.527989
389 3 0.498522 0.758561 0.544712
390 4 0.494016 0.748741 0.521708
391 1 0.512707 0.769594 0.537332
392 3 0.513224 0.773293 0.555704
393 4 0.519282 0.775461 0.531051
394 1 0.496011 0.785026 0.552563
395 3 0.490544 0.781965 0.57015
396 4 0.48914 0.790575 0.546518
397 1 0.479979 0.767298 0.564576
398 3 0.485151 0.761112 0.581063
399 4 0.472961 0.760921 0.558766
400 1 0.503251 0.755564 0.574154
401 3 0.506723 0.759454 0.592369
402 4 0.51219 0.752312 0.567402
403 1 0.514406 0.775014 0.588208
404 3 0.508274 0.780754 0.604145
405 4 0.521277 0.781391 0.582398
406 1 0.488771 0.78222 0.597943
407 3 0.487145 0.780563 0.616393
408 4 0.478502 0.7812 0.59284
409 1 0.487145 0.763217 0.615608
410 3 0.495272 0.763153 0.632252
411 4 0.484412 0.754926 0.610426
412 1 0.514406 0.764237 0.624009
413 3 0.5181 0.771634 0.640261
414 5 0.505098 0.71263 0.585528
415 1 0.517804 0.78694 0.630604
416 3 0.513446 0.792743 0.647327
417 4 0.5181 0.793955 0.622439
418 1 0.492612 0.788215 0.646463
419 3 0.487958 0.784389 0.663893
420 4 0.482048 0.789044 0.641517
421 1 0.495863 0.768701 0.663971
422 3 0.495346 0.770487 0.682029
423 4 0.499631 0.759582 0.660752
424 1 0.512633 0.777757 0.686661
425 3 0.507462 0.788789 0.698987
426 4 0.523493 0.778394 0.68462
427 1 0.498449 0.799247 0.684777
428 3 0.493868 0.804987 0.701264
429 4 0.495641 0.803967 0.674649
430 1 0.478132 0.794082 0.704876
431 3 0.481235 0.792488 0.722776
432 4 0.46971 0.788343 0.702834
433 1 0.496528 0.780881 0.722384
434 3 0.500148 0.788917 0.738792
435 4 0.504137 0.773739 0.718929
436 1 0.510786 0.801352 0.728665
437 3 0.505393 0.813086 0.739028
438 4 0.517657 0.806454 0.72097
439 1 0.487219 0.813787 0.732512
440 3 0.476433 0.814808 0.747272
441 5 0.494385 0.770702 0.684326
442 1 0.478871 0.797781 0.753082
443 3 0.485151 0.796314 0.770825
444 4 0.476433 0.788406 0.75002
445 1 0.504063 0.801224 0.766193
446 3 0.499631 0.816211 0.769804
447 4 0.514997 0.801097 0.761796
448 1 0.50591 0.815764 0.790374
449 3 0.514628 0.80792 0.804585
450 4 0.494312 0.815828 0.7943
451 1 0.526005 0.821376 0.810238
452 3 0.527556 0.825075 0.827981
453 4 0.533983 0.827498 0.806469
454 1 0.506427 0.8282 0.830651
455 3 0.50628 0.813341 0.835126
456 4 0.495493 0.830113 0.82806
457 1 0.504654 0.816721 0.856952
458 3 0.497267 0.803329 0.860878
459 4 0.505762 0.821759 0.867237
460 1 0.47695 0.810407 0.857031
461 3 0.472074 0.815892 0.840857
462 4 0.470892 0.815254 0.865431
463 1 0.462027 0.801352 0.833948
464 3 0.448434 0.810535 0.838188
465 4 0.456856 0.792934 0.83332
466 1 0.445035 0.817167 0.818168
467 3 0.432624 0.806581 0.817382
468 4 0.446513 0.820292 0.806705
469 1 0.417775 0.81755 0.824134
470 3 0.414672 0.82144 0.80537
471 4 0.412308 0.824055 0.832221
472 1 0.398345 0.812066 0.803329
473 3 0.411421 0.806007 0.794536
474 5 0.403886 0.761908 0.749326
475 1 0.401596 0.803584 0.77585
476 3 0.410387 0.816402 0.770354
477 4 0.393543 0.800778 0.767999
478 1 0.422577 0.808494 0.75685
479 3 0.411274 0.812448 0.743582
480 4 0.429521 0.801862 0.751982
481 1 0.422798 0.826032 0.736751
482 3 0.431516 0.829411 0.720107
483 4 0.418809 0.834322 0.740677
484 1 0.450502 0.824756 0.729842
485 3 0.455895 0.834832 0.743189
486 4 0.454935 0.815956 0.733375
487 1 0.47333 0.838786 0.73204
488 3 0.465869 0.851285 0.724974
489 4 0.482639 0.837255 0.725681
490 1 0.473552 0.861297 0.742561
491 3 0.484929 0.862955 0.728036
492 4 0.479832 0.864167 0.752375
493 1 0.477467 0.878197 0.720892
494 3 0.488697 0.887698 0.728586
495 4 0.46971 0.885275 0.717987
496 1 0.505393 0.880237 0.721127
497 3 0.516475 0.889994 0.713198
498 4 0.5099 0.871883 0.725446
499 1 0.517139 0.880811 0.693727
500 3 0.515662 0.886104 0.675983
501 4 0.52135 0.871947 0.690272
502 1 0.496602 0.89229 0.679359
503 3 0.500296 0.898093 0.662322
504 4 0.487884 0.896563 0.684463
505 1 0.511451 0.911613 0.668996
506 3 0.52135 0.910465 0.653765
507 4 0.514849 0.91952 0.675512
508 1 0.534722 0.898858 0.662087
509 3 0.535018 0.892545 0.645599
510 4 0.542775 0.895606 0.669074
511 1 0.523419 0.878388 0.65031
512 3 0.51773 0.88164 0.633352
513 5 0.52497 0.814929 0.607769
514 1 0.497858 0.881704 0.640339
515 3 0.495715 0.890504 0.624715
516 4 0.488623 0.880747 0.647484
517 1 0.500296 0.905044 0.63398
518 3 0.509309 0.906128 0.617492
519 4 0.498966 0.912123 0.642616
520 1 0.527261 0.910337 0.625343
521 3 0.535387 0.904917 0.609955
522 4 0.535757 0.914419 0.63241
523 1 0.535461 0.888336 0.616001
524 3 0.531176 0.877941 0.602497
525 4 0.540411 0.881768 0.623067
526 1 0.511746 0.881258 0.601083
527 3 0.507388 0.889994 0.586637
528 4 0.505467 0.87437 0.606815
529 1 0.493277 0.899496 0.596294
530 3 0.49542 0.908552 0.58177
531 4 0.486111 0.90192 0.605402
532 1 0.512264 0.91697 0.590406
533 3 0.512855 0.918054 0.571249
534 4 0.519725 0.921242 0.597315
535 1 0.525044 0.904853 0.566852
536 3 0.517435 0.902302 0.550522
537 4 0.533171 0.898221 0.569051
538 1 0.500591 0.894841 0.558766
539 3 0.491947 0.901856 0.545262
540 4 0.49372 0.889165 0.566303
541 1 0.489879 0.91748 0.555861
542 3 0.490987 0.922263 0.53796
543 4 0.490027 0.924686 0.563634
544 1 0.511155 0.922518 0.537803
545 3 0.508939 0.919265 0.519432
546 4 0.521941 0.92341 0.540787
547 1 0.505689 0.901856 0.522415
548 3 0.494385 0.902749 0.507419
549 4 0.507314 0.892992 0.526969
550 1 0.477541 0.906447 0.519981
551 3 0.471262 0.915758 0.506399
552 4 0.471336 0.906001 0.530109
553 1 0.482343 0.929851 0.512366
554 3 0.483895 0.931956 0.493758
555 4 0.485668 0.937121 0.519118
556 1 0.501404 0.922454 0.491874
557 3 0.495493 0.92137 0.474994
558 4 0.510491 0.917161 0.494465
559 1 0.482787 0.906894 0.480725
560 3 0.472518 0.910656 0.46675
561 4 0.480275 0.89854 0.486614
562 1 0.461806 0.923474 0.478998
563 3 0.462101 0.929533 0.461726
564 4 0.458112 0.928385 0.488577
565 1 0.478723 0.93795 0.463924
566 3 0.480792 0.935846 0.445474
567 4 0.487663 0.943817 0.467536
568 1 0.486998 0.919074 0.445866
569 3 0.476729 0.917288 0.430557
570 4 0.4918 0.910146 0.447594
571 1 0.459959 0.912314 0.441077
572 3 0.451906 0.920031 0.426553
573 4 0.452349 0.90683 0.448143
574 1 0.45331 0.936101 0.435503
575 3 0.45427 0.940374 0.417838
576 4 0.454639 0.943307 0.443825
577 1 0.475177 0.936994 0.416346
578 3 0.474586 0.932849 0.397425
579 4 0.48648 0.935591 0.419644
580 1 0.466829 0.91697 0.401036
581 3 0.455009 0.918054 0.386747
582 4 0.464687 0.908297 0.406061
583 1 0.441268 0.927428 0.398131
584 3 0.434988 0.940884 0.392636
585 4 0.433806 0.927492 0.40771
586 1 0.452645 0.9486 0.391379
587 3 0.453679 0.955679 0.374264
588 4 0.46151 0.953128 0.396954
589 1 0.456339 0.939545 0.363508
590 3 0.441563 0.931573 0.364764
591 4 0.465795 0.934507 0.362409
592 1 0.442302 0.927109 0.343645
593 3 0.45294 0.914865 0.348198
594 4 0.443262 0.928512 0.331554
595 1 0.436687 0.902876 0.35126
596 3 0.448951 0.892226 0.347335
597 4 0.426492 0.899241 0.353537
598 1 0.445774 0.892481 0.325351
599 3 0.447178 0.902812 0.311847
600 4 0.437943 0.886933 0.319934
601 1 0.467272 0.902876 0.311455
602 3 0.482122 0.89516 0.317029
603 4 0.468085 0.912633 0.315066
604 1 0.491874 0.897328 0.297558
605 3 0.498449 0.908934 0.306823
606 4 0.493425 0.898922 0.285782
607 1 0.514923 0.89854 0.31538
608 3 0.506871 0.898093 0.33226
609 4 0.518986 0.907531 0.316715
610 1 0.516179 0.884 0.339483
611 3 0.519208 0.891333 0.35652
612 4 0.519282 0.874434 0.340033
613 1 0.536348 0.899114 0.349847
614 3 0.533318 0.911932 0.359896
615 4 0.546025 0.900261 0.343016
616 1 0.515884 0.916587 0.349768
617 3 0.514332 0.931382 0.346314
618 5 0.523271 0.860124 0.333973
619 1 0.527187 0.932211 0.331083
620 3 0.529034 0.925005 0.315537
621 4 0.537825 0.936037 0.334537
622 1 0.518691 0.936675 0.303918
623 3 0.519947 0.946496 0.28955
624 4 0.507388 0.938014 0.303839
625 1 0.537234 0.954148 0.295988
626 3 0.547651 0.956891 0.281071
627 4 0.542332 0.957464 0.305488
628 1 0.554447 0.940629 0.278402
629 3 0.556885 0.931191 0.263798
630 4 0.563608 0.938078 0.284604
631 1 0.537308 0.924303 0.266154
632 3 0.533171 0.931828 0.249509
633 4 0.526522 0.923347 0.270315
634 1 0.537677 0.919202 0.236947
635 3 0.520464 0.916587 0.239695
636 4 0.544917 0.913653 0.230353
637 1 0.514923 0.9185 0.21889
638 3 0.516548 0.903578 0.212766
639 4 0.514332 0.922964 0.208134
640 1 0.498744 0.897838 0.21991
641 3 0.481087 0.893629 0.221481
642 4 0.499113 0.892673 0.230431
643 1 0.475399 0.903769 0.20413
644 3 0.47237 0.913653 0.218183
645 4 0.469932 0.895224 0.201853
646 1 0.452719 0.916842 0.212844
647 3 0.454048 0.930425 0.219518
648 4 0.450946 0.914482 0.2247
649 1 0.457225 0.93744 0.198555
650 3 0.449764 0.950067 0.202874
651 4 0.461362 0.93693 0.187328
652 1 0.435801 0.934634 0.189841
653 3 0.431959 0.926216 0.204915
654 4 0.427231 0.939608 0.184894
655 1 0.424572 0.91225 0.19306
656 3 0.43521 0.904853 0.18144
657 4 0.413342 0.912059 0.188741
658 1 0.434323 0.889293 0.192903
659 3 0.428413 0.887188 0.175395
660 4 0.429152 0.882023 0.199262
661 1 0.448582 0.881959 0.168171
662 3 0.436983 0.870225 0.166994
663 4 0.459663 0.880365 0.167622
664 1 0.439347 0.867738 0.145717
665 3 0.454492 0.860851 0.139593
666 4 0.435653 0.872457 0.135668
667 1 0.450946 0.844844 0.145874
668 3 0.455157 0.834386 0.133705
669 4 0.45102 0.838403 0.155374
670 1 0.437057 0.835533 0.121771
671 3 0.438682 0.848734 0.113449
672 4 0.426197 0.832983 0.122007
673 1 0.449247 0.840954 0.096412
674 3 0.434767 0.841145 0.0855775
675 4 0.455895 0.834704 0.0904452
676 1 0.438313 0.859065 0.0802387
677 3 0.421321 0.862381 0.0776478
678 4 0.439125 0.856004 0.0686975
679 1 0.416223 0.862445 0.0986889
680 3 0.420287 0.877112 0.0957839
681 4 0.416814 0.860341 0.11078
682 1 0.39997 0.881513 0.0936641
683 3 0.387707 0.876602 0.106226
684 4 0.394873 0.882469 0.082594
685 1 0.385417 0.89229 0.11549
686 3 0.381206 0.906702 0.10866
687 4 0.390884 0.893948 0.125697
688 1 0.361111 0.905363 0.115098
689 3 0.362736 0.912123 0.131664
690 4 0.350842 0.900835 0.115569
691 1 0.357196 0.928257 0.125304
692 3 0.343307 0.921944 0.133705
693 4 0.354979 0.936229 0.118945
694 1 0.358525 0.938652 0.145717
695 3 0.372931 0.930808 0.150271
696 4 0.35461 0.943435 0.154825
697 1 0.385638 0.943817 0.142891
698 3 0.387337 0.957082 0.152705
699 4 0.388372 0.946496 0.132056
700 1 0.398419 0.952044 0.167465
701 3 0.415632 0.94809 0.167465
702 4 0.395981 0.947899 0.178456
703 1 0.421321 0.964926 0.162519
704 3 0.424572 0.963013 0.180733
705 4 0.419474 0.974555 0.161262
706 1 0.445183 0.961036 0.179242
707 3 0.442598 0.975831 0.183717
708 4 0.4556 0.960589 0.17406
709 1 0.447252 0.973407 0.205464
710 3 0.459885 0.979593 0.215357
711 5 0.445996 0.917973 0.197649
712 1 0.472444 0.965691 0.214101
713 3 0.477246 0.954977 0.201539
714 4 0.472444 0.960525 0.225014
715 1 0.496306 0.961355 0.199969
716 3 0.505467 0.947899 0.198241
717 4 0.504285 0.968369 0.198791
718 1 0.504137 0.943562 0.219204
719 3 0.497119 0.931701 0.22839
720 4 0.513224 0.943945 0.227055
721 1 0.477615 0.936547 0.223286
722 3 0.480053 0.939162 0.242129
723 5 0.48648 0.87323 0.205122
724 1 0.461953 0.932275 0.247389
725 3 0.467199 0.917926 0.249823
726 4 0.450428 0.932785 0.246683
727 1 0.471188 0.920349 0.271021
728 3 0.465869 0.908934 0.28217
729 4 0.478354 0.925324 0.278873
730 1 0.445848 0.915694 0.283662
731 3 0.437943 0.92577 0.271335
732 4 0.445331 0.918181 0.295517
733 1 0.419991 0.917671 0.273377
734 3 0.415189 0.927938 0.286331
735 4 0.411939 0.910529 0.273534
736 1 0.402261 0.936675 0.273691
737 3 0.388815 0.927428 0.276203
738 4 0.398419 0.942606 0.265212
739 1 0.385934 0.933295 0.297009
740 3 0.381427 0.947644 0.302583
741 4 0.391548 0.929596 0.307294
742 1 0.360742 0.942032 0.30219
743 3 0.353945 0.932849 0.314595
744 4 0.352911 0.939864 0.293633
745 1 0.348183 0.945922 0.328727
746 3 0.351064 0.934188 0.341289
747 4 0.337766 0.942096 0.32755
748 1 0.369829 0.940756 0.346549
749 3 0.362884 0.94809 0.360839
750 4 0.379802 0.945412 0.344508
751 1 0.366356 0.934188 0.374971
752 3 0.381871 0.933933 0.382194
753 4 0.362736 0.924941 0.377247
754 1 0.373744 0.943307 0.400879
755 3 0.374778 0.938397 0.41823
756 4 0.370198 0.951916 0.40504
757 1 0.366726 0.923155 0.414854
758 3 0.375222 0.918309 0.431028
759 4 0.361185 0.915375 0.409123
760 1 0.393395 0.91461 0.421292
761 3 0.402852 0.919903 0.436366
762 4 0.400266 0.910784 0.412656
763 1 0.400192 0.936994 0.431106
764 3 0.396868 0.939736 0.449164
765 4 0.401743 0.945348 0.424825
766 1 0.376847 0.937058 0.447908
767 3 0.379359 0.931892 0.465494
768 4 0.366135 0.936739 0.443982
769 1 0.382314 0.915056 0.460077
770 3 0.391992 0.914929 0.475936
771 4 0.383126 0.90683 0.454895
772 1 0.408688 0.922773 0.467457
773 3 0.410313 0.929596 0.48418
774 4 0.417036 0.924813 0.459449
775 1 0.398641 0.943371 0.478998
776 3 0.397015 0.942988 0.49737
777 5 0.401374 0.892313 0.448957
778 1 0.380836 0.930936 0.496428
779 3 0.38586 0.925515 0.512837
780 4 0.371454 0.927109 0.492031
781 1 0.399823 0.914865 0.504514
782 3 0.40891 0.918819 0.520295
783 4 0.404477 0.907659 0.498155
784 1 0.417405 0.933104 0.512523
785 3 0.415263 0.937504 0.53058
786 4 0.423611 0.938779 0.505692
787 1 0.396941 0.945858 0.527361
788 3 0.39443 0.942988 0.546204
789 4 0.387707 0.948792 0.521787
790 1 0.39081 0.925451 0.542985
791 3 0.400635 0.922454 0.558138
792 4 0.385343 0.916714 0.539216
793 1 0.418735 0.920796 0.54746
794 3 0.422207 0.925579 0.564811
795 4 0.427083 0.919712 0.538745
796 1 0.420804 0.942861 0.5601
797 3 0.418514 0.943562 0.578786
798 4 0.417701 0.95147 0.554212
799 1 0.398788 0.937568 0.578551
800 3 0.403073 0.932338 0.59496
801 4 0.387855 0.93591 0.575175
802 1 0.409722 0.916523 0.588051
803 3 0.422872 0.916077 0.600141
804 4 0.4112 0.908297 0.582084
805 1 0.435801 0.926663 0.587815
806 3 0.44245 0.932657 0.603988
807 4 0.441415 0.929405 0.577766
808 1 0.429817 0.946623 0.603674
809 3 0.437796 0.948792 0.62024
810 4 0.422281 0.953511 0.600769
811 1 0.425163 0.939608 0.632331
812 3 0.436983 0.93642 0.645207
813 4 0.415632 0.934698 0.634843
814 1 0.446809 0.924686 0.634372
815 3 0.460402 0.931254 0.643244
816 4 0.449468 0.916204 0.628013
817 1 0.463726 0.943307 0.626286
818 3 0.46779 0.951725 0.641438
819 4 0.464761 0.946751 0.615137
820 1 0.450872 0.959123 0.644657
821 3 0.454639 0.959952 0.662872
822 4 0.440751 0.963395 0.643715
823 1 0.449099 0.942925 0.668525
824 3 0.462988 0.943945 0.679438
825 4 0.444444 0.93406 0.670252
826 1 0.477024 0.939098 0.665698
827 3 0.489362 0.948281 0.673157
828 4 0.481752 0.932849 0.65769
829 1 0.483156 0.962949 0.661145
830 3 0.48456 0.971367 0.676533
831 4 0.479905 0.968051 0.651488
832 1 0.466534 0.969645 0.684541
833 3 0.468972 0.969645 0.702756
834 4 0.455304 0.970474 0.684384
835 1 0.481014 0.953893 0.7015
836 3 0.495567 0.95823 0.712491
837 4 0.480792 0.944391 0.699772
838 1 0.50591 0.965882 0.696082
839 3 0.512337 0.979784 0.70095
840 4 0.51219 0.963587 0.686425
841 1 0.494016 0.988266 0.698909
842 3 0.487515 0.983675 0.71571
843 4 0.484338 0.991965 0.692942
844 1 0.49505 0.997959 0.726859
845 3 0.49904 0.985014 0.735259
846 4 0.483895 0.999745 0.730784
847 1 0.513076 0.991391 0.748057
848 3 0.508422 0.981251 0.761325
849 4 0.522237 0.995727 0.752218
850 1 0.492391 0.990179 0.768705
851 3 0.476581 0.983101 0.769255
852 4 0.488327 0.998087 0.774672
853 1 0.477246 0.979593 0.746958
854 3 0.464687 0.990052 0.751354
855 4 0.47466 0.969836 0.749156
856 1 0.453605 0.986863 0.73314
857 3 0.445257 0.978318 0.745387
858 4 0.452423 0.985843 0.721206
859 1 0.429078 0.990179 0.748292
860 3 0.420287 0.979083 0.738243
861 4 0.422725 0.998597 0.747664
862 1 0.416667 0.96888 0.755986
863 3 0.405511 0.961801 0.744367
864 4 0.415632 0.966265 0.767763
865 1 0.391327 0.974874 0.743582
866 3 0.387707 0.971813 0.725917
867 4 0.3849 0.98208 0.747821
868 1 0.402852 0.981953 0.717123
869 3 0.40167 0.970219 0.705504
870 4 0.4112 0.988649 0.71571
871 1 0.415928 0.96027 0.716809
872 3 0.408171 0.94758 0.71045
873 4 0.425163 0.957911 0.722855
874 1 0.392583 0.948218 0.725367
875 3 0.3832 0.94133 0.71257
876 5 0.400709 0.882652 0.686312
877 1 0.377881 0.956699 0.702285
878 3 0.379876 0.951534 0.684934
879 4 0.374409 0.966137 0.701421
880 1 0.401005 0.954595 0.683834
881 3 0.403221 0.94133 0.673235
882 4 0.411569 0.958676 0.686268
883 1 0.401226 0.93068 0.690115
884 3 0.392583 0.920094 0.679438
885 4 0.401965 0.926854 0.701343
886 1 0.374778 0.928959 0.680694
887 3 0.369829 0.924813 0.664128
888 4 0.365765 0.93304 0.686818
889 1 0.380245 0.938142 0.653058
890 3 0.385121 0.927237 0.640967
891 4 0.384235 0.94707 0.650546
892 1 0.402187 0.921944 0.652508
893 3 0.398419 0.907723 0.64505
894 4 0.411939 0.922773 0.658789
895 1 0.385786 0.902493 0.660517
896 3 0.374704 0.894841 0.64874
897 4 0.383053 0.900325 0.67143
898 1 0.364436 0.908743 0.643009
899 3 0.363918 0.902366 0.625658
900 4 0.358599 0.917288 0.643794
901 1 0.382979 0.909253 0.620633
902 3 0.386525 0.895415 0.612703
903 4 0.391327 0.916013 0.620005
904 1 0.391622 0.886997 0.631153
905 3 0.385121 0.874434 0.622517
906 5 0.390293 0.825747 0.595251
907 1 0.365396 0.879217 0.626835
908 3 0.360963 0.874179 0.60972
909 4 0.355644 0.881895 0.633038
910 1 0.363254 0.889548 0.599356
911 3 0.36872 0.881258 0.584832
912 4 0.364731 0.898922 0.596059
913 1 0.387781 0.879026 0.591976
914 3 0.386673 0.864741 0.585381
915 4 0.398493 0.88011 0.59653
916 1 0.377069 0.858427 0.603046