ITEM: TIMESTEP
0
ITEM: NUMBER OF ATOMS
8634
ITEM: BOX BOUNDS ss ss ss
40.29 171.58
20.31 180.01
4.9 131.26
ITEM: ATOMS id type xs ys zs
1 1 0.335898 0.871008 0.779361
2 3 0.323178 0.881277 0.777778
3 4 0.342448 0.869067 0.769231
4 1 0.308173 0.871071 0.769547
5 3 0.302308 0.860676 0.78213
6 4 0.306649 0.868754 0.757914
7 1 0.282352 0.86531 0.780627
8 3 0.281057 0.856043 0.765749
9 4 0.273364 0.871634 0.782289
10 1 0.269175 0.843832 0.777857
11 3 0.267576 0.838197 0.759972
12 4 0.261025 0.840639 0.785771
13 1 0.251428 0.84809 0.753482
14 3 0.258055 0.849468 0.735438
15 4 0.241679 0.853287 0.754511
16 1 0.272298 0.860676 0.740582
17 3 0.286008 0.855354 0.72982
18 4 0.276259 0.86938 0.744381
19 1 0.291111 0.842392 0.743273
20 3 0.291035 0.83206 0.72982
21 4 0.294843 0.838259 0.753957
22 1 0.26948 0.830557 0.728553
23 3 0.270241 0.831183 0.70956
24 4 0.258512 0.828491 0.73251
25 1 0.267499 0.848528 0.707661
26 3 0.278848 0.846838 0.692466
27 4 0.264224 0.857545 0.710035
28 1 0.2969 0.847902 0.705128
29 3 0.303374 0.837633 0.692703
30 4 0.30505 0.849656 0.713833
31 1 0.296138 0.823482 0.703704
32 3 0.295834 0.818347 0.686056
33 4 0.292254 0.818222 0.713121
34 1 0.275725 0.824609 0.681387
35 3 0.282657 0.825611 0.663976
36 4 0.264757 0.828491 0.682732
37 1 0.291721 0.840576 0.666033
38 3 0.305735 0.837946 0.655429
39 4 0.293092 0.850157 0.669199
40 1 0.315866 0.827927 0.669911
41 3 0.319065 0.819224 0.65535
42 4 0.32135 0.825047 0.680595
43 1 0.30307 0.80908 0.658041
44 3 0.302689 0.808453 0.638097
45 4 0.29332 0.805135 0.662631
46 1 0.295453 0.824358 0.634695
47 3 0.305431 0.823356 0.619658
48 4 0.289131 0.832373 0.635565
49 1 0.324092 0.828491 0.630658
50 3 0.332165 0.819411 0.619262
51 4 0.330871 0.831997 0.639522
52 1 0.330947 0.80526 0.631925
53 3 0.330414 0.798748 0.61491
54 4 0.330337 0.799436 0.641421
55 1 0.309239 0.799812 0.612061
56 3 0.312743 0.800751 0.593463
57 4 0.297509 0.799812 0.614118
58 1 0.316551 0.818096 0.593226
59 3 0.328738 0.815216 0.579614
60 4 0.316627 0.827113 0.597341
61 1 0.344885 0.81077 0.59465
62 3 0.351512 0.801127 0.581197
63 4 0.35136 0.810457 0.604859
64 1 0.336278 0.788666 0.587449
65 3 0.335212 0.786537 0.568376
66 4 0.329423 0.783719 0.595046
67 1 0.319522 0.797307 0.564894
68 3 0.326681 0.797996 0.547167
69 4 0.312057 0.804571 0.566714
70 1 0.342677 0.808453 0.551045
71 3 0.351436 0.801064 0.537512
72 5 0.33506 0.756032 0.508783
73 1 0.355168 0.786913 0.550649
74 3 0.350903 0.777896 0.536008
75 4 0.359129 0.781528 0.560146
76 1 0.32988 0.776143 0.540598
77 3 0.32889 0.776018 0.521288
78 4 0.319369 0.775767 0.545821
79 1 0.330185 0.7933 0.519706
80 3 0.338792 0.790733 0.503166
81 4 0.329271 0.802755 0.522317
82 1 0.357758 0.786788 0.511633
83 3 0.358062 0.776832 0.497468
84 4 0.367431 0.786788 0.518044
85 1 0.349227 0.76412 0.509892
86 3 0.34321 0.757358 0.493906
87 4 0.347323 0.758172 0.51931
88 1 0.325767 0.768003 0.492244
89 3 0.326148 0.771572 0.473963
90 4 0.315409 0.770695 0.496518
91 1 0.340925 0.784596 0.476179
92 3 0.350903 0.781152 0.460984
93 4 0.344962 0.792924 0.480611
94 1 0.362175 0.768629 0.469452
95 3 0.353035 0.75598 0.464308
96 4 0.369944 0.765185 0.477525
97 1 0.353492 0.758485 0.443336
98 3 0.367736 0.748215 0.445552
99 4 0.352502 0.762054 0.431782
100 1 0.357301 0.734565 0.442466
101 3 0.358976 0.7268 0.425768
102 4 0.349075 0.728491 0.446423
103 1 0.376571 0.736443 0.419595
104 3 0.383883 0.722981 0.424501
105 4 0.38533 0.743143 0.421494
106 1 0.391424 0.719662 0.403846
107 3 0.406276 0.72799 0.406141
108 4 0.392261 0.719224 0.391659
109 1 0.416711 0.715404 0.418249
110 3 0.426384 0.72417 0.429804
111 4 0.425775 0.716281 0.410336
112 1 0.40879 0.728867 0.442308
113 3 0.419758 0.733751 0.45592
114 4 0.397593 0.729305 0.446265
115 1 0.425623 0.717721 0.462172
116 3 0.443141 0.719537 0.466445
117 4 0.424404 0.708265 0.4651
118 1 0.448321 0.72655 0.447373
119 3 0.454109 0.740388 0.442862
120 4 0.452814 0.720977 0.438192
121 1 0.436743 0.748278 0.443495
122 3 0.434306 0.748967 0.462646
123 4 0.425927 0.749718 0.437559
124 1 0.439942 0.765686 0.464941
125 3 0.430269 0.768316 0.480769
126 4 0.443903 0.774389 0.463121
127 1 0.411379 0.767188 0.471589
128 3 0.404524 0.761866 0.487892
129 4 0.402315 0.768128 0.463359
130 1 0.41275 0.745961 0.485043
131 3 0.414578 0.745022 0.503561
132 4 0.417549 0.737758 0.480848
133 1 0.431183 0.755354 0.504827
134 3 0.421967 0.760113 0.520972
135 4 0.440475 0.76005 0.501504
136 1 0.413207 0.773763 0.511317
137 3 0.400716 0.771133 0.524137
138 4 0.410694 0.78109 0.50372
139 1 0.390586 0.758798 0.512108
140 3 0.386777 0.752786 0.528807
141 4 0.386092 0.753914 0.503403
142 1 0.403915 0.743269 0.529835
143 3 0.401401 0.745085 0.549224
144 4 0.414655 0.739198 0.528648
145 1 0.409932 0.760488 0.549937
146 3 0.397136 0.76556 0.562915
147 4 0.418692 0.766875 0.54867
148 1 0.382436 0.768629 0.548354
149 3 0.371468 0.763118 0.562599
150 4 0.377104 0.771572 0.53767
151 1 0.373829 0.746963 0.555951
152 3 0.372229 0.744709 0.574628
153 4 0.375885 0.738885 0.549383
154 1 0.392414 0.74521 0.578506
155 3 0.387158 0.750908 0.595679
156 4 0.404143 0.74521 0.577398
157 1 0.387539 0.767376 0.588873
158 3 0.373448 0.769443 0.601773
159 4 0.390662 0.775642 0.582779
160 1 0.358291 0.763619 0.58824
161 3 0.352045 0.757671 0.604701
162 4 0.352807 0.760676 0.577714
163 1 0.363394 0.743331 0.603593
164 3 0.361566 0.745085 0.62227
165 4 0.368726 0.734941 0.600032
166 1 0.380608 0.755166 0.62409
167 3 0.371468 0.761803 0.638651
168 4 0.390281 0.759737 0.621874
169 1 0.358138 0.771321 0.626939
170 3 0.347399 0.769756 0.642054
171 5 0.365908 0.722474 0.584586
172 1 0.341077 0.753726 0.637464
173 3 0.341915 0.750657 0.655666
174 4 0.336507 0.745961 0.631529
175 1 0.363013 0.747339 0.656379
176 3 0.365527 0.753976 0.673789
177 4 0.373829 0.744271 0.653213
178 1 0.365527 0.769631 0.6654
179 3 0.35532 0.775016 0.679408
180 4 0.368954 0.776456 0.65812
181 1 0.336355 0.77226 0.668724
182 3 0.331251 0.775767 0.68566
183 4 0.327748 0.769443 0.660415
184 1 0.32988 0.760927 0.694761
185 3 0.333308 0.768879 0.709639
186 4 0.328357 0.751409 0.696819
187 1 0.354025 0.767752 0.708531
188 3 0.351436 0.780276 0.718582
189 4 0.364841 0.765811 0.705207
190 1 0.350446 0.790106 0.700142
191 3 0.341306 0.798497 0.71233
192 4 0.34976 0.793613 0.688509
193 1 0.322797 0.790607 0.708373
194 3 0.317922 0.795492 0.72515
195 4 0.314038 0.7866 0.702833
196 1 0.328205 0.782342 0.736309
197 3 0.333536 0.792611 0.749525
198 4 0.332546 0.773638 0.738129
199 1 0.349303 0.799186 0.738366
200 3 0.343895 0.812085 0.745964
201 4 0.358824 0.799311 0.731165
202 1 0.33049 0.817032 0.729899
203 3 0.32036 0.823419 0.743194
204 4 0.327215 0.819286 0.718898
205 1 0.308097 0.809768 0.745331
206 3 0.305431 0.811396 0.763928
207 4 0.301622 0.801753 0.743273
208 1 0.322264 0.80288 0.771051
209 3 0.339782 0.806137 0.767411
210 4 0.32074 0.793049 0.773742
211 1 0.346561 0.807013 0.788699
212 3 0.353264 0.794364 0.782843
213 5 0.336126 0.753328 0.740795
214 1 0.372991 0.79712 0.79044
215 3 0.366898 0.788103 0.805002
216 4 0.383045 0.800814 0.794001
217 1 0.370478 0.774076 0.793685
218 3 0.3752 0.759549 0.790677
219 4 0.358976 0.77226 0.792814
220 1 0.386701 0.762054 0.773979
221 3 0.377561 0.750094 0.768202
222 4 0.396298 0.76531 0.767648
223 1 0.36507 0.757545 0.754115
224 3 0.364917 0.746149 0.740741
225 4 0.358672 0.764997 0.75
226 1 0.384645 0.745523 0.736784
227 3 0.400259 0.748341 0.744381
228 4 0.387615 0.750157 0.726496
229 1 0.406124 0.731935 0.748575
230 3 0.416254 0.736569 0.733776
231 4 0.404677 0.722354 0.748101
232 1 0.433849 0.739324 0.747072
233 3 0.442836 0.739449 0.729899
234 4 0.44078 0.739198 0.756489
235 1 0.445045 0.722981 0.727604
236 3 0.444207 0.724108 0.708294
237 4 0.44733 0.713713 0.730453
238 1 0.423033 0.724671 0.708056
239 3 0.423871 0.735692 0.695948
240 4 0.411379 0.72248 0.709797
241 1 0.42448 0.748403 0.711697
242 3 0.433696 0.755103 0.696898
243 4 0.423414 0.753601 0.72151
244 1 0.452205 0.747151 0.701567
245 3 0.454185 0.749405 0.682811
246 4 0.460583 0.742142 0.707661
247 1 0.443141 0.73469 0.676876
248 3 0.437276 0.743206 0.662631
249 4 0.43918 0.725611 0.677271
250 1 0.41991 0.749468 0.673789
251 3 0.421357 0.761052 0.661523
252 4 0.413284 0.751284 0.683919
253 1 0.437276 0.769631 0.67284
254 3 0.445959 0.772135 0.656062
255 4 0.444741 0.772824 0.681387
256 1 0.454185 0.756857 0.654638
257 3 0.453652 0.759236 0.635486
258 4 0.460279 0.748779 0.657961
259 1 0.43423 0.753162 0.633112
260 3 0.433163 0.763995 0.619104
261 4 0.424328 0.74784 0.633745
262 1 0.429279 0.777019 0.633033
263 3 0.440094 0.785348 0.621557
264 4 0.425851 0.781841 0.642688
265 1 0.45807 0.780088 0.631212
266 3 0.465306 0.780338 0.613723
267 4 0.46721 0.779023 0.639364
268 1 0.462411 0.763682 0.609291
269 3 0.46264 0.768629 0.591722
270 4 0.459822 0.754352 0.610953
271 1 0.442608 0.77201 0.589902
272 3 0.448397 0.782655 0.577952
273 4 0.431335 0.771384 0.591089
274 1 0.451367 0.794865 0.594096
275 3 0.464316 0.79975 0.582858
276 4 0.450225 0.801378 0.603514
277 1 0.479092 0.788416 0.590614
278 3 0.486785 0.789856 0.573837
279 4 0.484271 0.781653 0.596787
280 1 0.474446 0.77871 0.563628
281 3 0.47734 0.787101 0.547483
282 4 0.466068 0.772135 0.561174
283 1 0.464011 0.799624 0.55239
284 3 0.476959 0.808453 0.544476
285 4 0.454947 0.80526 0.556822
286 1 0.486709 0.811209 0.56339
287 3 0.501714 0.811209 0.552469
288 4 0.48808 0.813275 0.57534
289 1 0.504304 0.793425 0.551678
290 3 0.510854 0.793801 0.533476
291 4 0.50537 0.78422 0.55516
292 1 0.491279 0.795742 0.524533
293 3 0.500571 0.805197 0.512821
294 4 0.479321 0.795679 0.524296
295 1 0.498667 0.819098 0.525483
296 3 0.515119 0.822918 0.520022
297 4 0.493335 0.824984 0.533318
298 1 0.525249 0.815466 0.535454
299 3 0.537893 0.813964 0.521921
300 4 0.530505 0.811146 0.545742
301 1 0.52921 0.79975 0.513533
302 3 0.537132 0.804383 0.497626
303 4 0.522127 0.792298 0.511871
304 1 0.522279 0.81459 0.490582
305 3 0.533552 0.825673 0.484805
306 4 0.511463 0.816343 0.486784
307 1 0.534313 0.834314 0.504669
308 3 0.550994 0.837132 0.497547
309 4 0.531647 0.837758 0.515749
310 1 0.559296 0.823168 0.506173
311 3 0.570417 0.821791 0.491057
312 4 0.563028 0.816093 0.51377
313 1 0.556021 0.813901 0.478316
314 3 0.563638 0.822104 0.464546
315 4 0.547262 0.808328 0.475071
316 1 0.550994 0.835942 0.468028
317 3 0.564476 0.845147 0.462409
318 4 0.541321 0.841578 0.471035
319 1 0.575291 0.845147 0.481561
320 3 0.591439 0.846713 0.471827
321 4 0.576739 0.844834 0.493985
322 1 0.591743 0.829743 0.466366
323 3 0.595856 0.832311 0.448481
324 4 0.592048 0.820914 0.470798
325 1 0.577348 0.829493 0.440567
326 3 0.558382 0.83087 0.442783
327 4 0.578795 0.821165 0.435185
328 1 0.555412 0.841515 0.426401
329 3 0.543834 0.841453 0.411997
330 4 0.555945 0.850595 0.429566
331 1 0.557697 0.839386 0.396645
332 3 0.56737 0.826487 0.395141
333 4 0.56021 0.84809 0.392529
334 1 0.565085 0.826738 0.372032
335 3 0.580242 0.830933 0.364514
336 4 0.556478 0.820539 0.368313
337 1 0.55663 0.837946 0.353672
338 3 0.55762 0.84953 0.365859
339 4 0.555793 0.840138 0.341643
340 1 0.537132 0.853788 0.364989
341 3 0.532638 0.845773 0.380817
342 4 0.527306 0.856105 0.359133
343 1 0.535684 0.858297 0.394666
344 3 0.517557 0.857608 0.393716
345 4 0.536294 0.867251 0.399177
346 1 0.516795 0.844396 0.410731
347 3 0.504456 0.832686 0.408199
348 4 0.508721 0.850845 0.414213
349 1 0.513291 0.828366 0.387781
350 3 0.519841 0.818034 0.400681
351 4 0.520222 0.828741 0.377493
352 1 0.508645 0.804822 0.390947
353 3 0.519461 0.798622 0.377651
354 4 0.498134 0.801503 0.386594
355 1 0.530429 0.788854 0.391659
356 3 0.517023 0.777833 0.390551
357 4 0.536979 0.787351 0.402026
358 1 0.529286 0.766374 0.380975
359 3 0.533476 0.76005 0.397832
360 4 0.537055 0.762805 0.372349
361 1 0.516947 0.748215 0.394745
362 3 0.511616 0.753225 0.412393
363 4 0.525097 0.741578 0.397832
364 1 0.491964 0.750219 0.409544
365 3 0.490974 0.746274 0.427588
366 4 0.481225 0.749593 0.404321
367 1 0.501104 0.730056 0.424897
368 3 0.50636 0.734064 0.441991
369 4 0.506665 0.722292 0.420861
370 1 0.523269 0.743018 0.436135
371 3 0.519918 0.750219 0.4522
372 4 0.533171 0.745398 0.430912
373 1 0.506969 0.761428 0.443732
374 3 0.49981 0.761616 0.460272
375 4 0.50179 0.768003 0.436926
376 1 0.488156 0.746775 0.457107
377 3 0.491203 0.742329 0.474913
378 4 0.481453 0.740701 0.450301
379 1 0.509559 0.733626 0.470165
380 3 0.515652 0.738948 0.486863
381 4 0.518242 0.729555 0.463754
382 1 0.519689 0.754101 0.480453
383 3 0.515576 0.758923 0.498259
384 4 0.523345 0.761866 0.474042
385 1 0.495316 0.757295 0.496755
386 3 0.491888 0.750407 0.513216
387 4 0.484576 0.760113 0.492877
388 1 0.499124 0.734941 0.506648
389 3 0.50834 0.73325 0.522555
390 4 0.498972 0.727364 0.499683
391 1 0.524869 0.743143 0.516065
392 3 0.523269 0.749029 0.533792
393 4 0.533628 0.747339 0.510605
394 1 0.508264 0.761115 0.529123
395 3 0.505065 0.758359 0.547246
396 4 0.500647 0.767376 0.524137
397 1 0.491355 0.745523 0.543922
398 3 0.498058 0.741327 0.5607
399 4 0.483967 0.739136 0.539332
400 1 0.515043 0.732874 0.551757
401 3 0.521822 0.735191 0.568613
402 4 0.522431 0.728867 0.543922
403 1 0.528068 0.751597 0.564736
404 3 0.521974 0.754728 0.582067
405 4 0.534237 0.758923 0.560858
406 1 0.502095 0.758422 0.575973
407 3 0.498362 0.756293 0.594729
408 4 0.492041 0.759487 0.571067
409 1 0.498667 0.738572 0.593384
410 3 0.50636 0.737696 0.61119
411 4 0.496534 0.729493 0.588952
412 1 0.526163 0.73995 0.603989
413 3 0.530124 0.748528 0.618788
414 5 0.516947 0.679578 0.565581
415 1 0.52822 0.763807 0.60842
416 3 0.519918 0.772323 0.622745
417 4 0.530353 0.769818 0.599873
418 1 0.501942 0.764559 0.622745
419 3 0.5008 0.76531 0.6415
420 4 0.491888 0.760927 0.618313
421 1 0.508416 0.750094 0.645774
422 3 0.509026 0.754227 0.663264
423 4 0.512758 0.74114 0.644983
424 1 0.526544 0.763932 0.663818
425 3 0.519308 0.771885 0.677509
426 4 0.538122 0.765623 0.660494
427 1 0.511158 0.783782 0.663818
428 3 0.503161 0.78948 0.678933
429 4 0.507731 0.787852 0.65345
430 1 0.487775 0.778272 0.68107
431 3 0.489527 0.781403 0.699114
432 4 0.48092 0.771133 0.678063
433 1 0.506284 0.768003 0.701092
434 3 0.505522 0.773513 0.718265
435 4 0.516033 0.763369 0.698322
436 1 0.517709 0.78779 0.713042
437 3 0.511692 0.793738 0.729424
438 4 0.523802 0.794427 0.707186
439 1 0.491812 0.796807 0.723488
440 3 0.480158 0.791672 0.736863
441 5 0.499733 0.745956 0.678058
442 1 0.481758 0.774452 0.731244
443 3 0.483891 0.770194 0.749446
444 4 0.481453 0.767126 0.723647
445 1 0.50537 0.769881 0.748971
446 3 0.501257 0.782467 0.759655
447 4 0.516871 0.771071 0.746201
448 1 0.50438 0.77489 0.778886
449 3 0.52205 0.779837 0.778569
450 4 0.503009 0.768566 0.788382
451 1 0.518699 0.79355 0.791469
452 3 0.526316 0.794364 0.808325
453 4 0.514891 0.802379 0.788699
454 1 0.509635 0.784909 0.817585
455 3 0.507959 0.790858 0.834837
456 4 0.517709 0.778898 0.822096
457 1 0.495925 0.805009 0.826844
458 3 0.479778 0.797683 0.82629
459 4 0.493869 0.812774 0.820513
460 1 0.476731 0.799249 0.847578
461 3 0.465382 0.809205 0.83919
462 4 0.477873 0.799937 0.859528
463 1 0.44695 0.79881 0.843859
464 3 0.439637 0.811209 0.837211
465 4 0.44337 0.801941 0.854859
466 1 0.444131 0.808203 0.816556
467 3 0.428517 0.801002 0.812441
468 4 0.452281 0.807389 0.808009
469 1 0.418311 0.81578 0.806822
470 3 0.424556 0.816907 0.788462
471 4 0.414198 0.825297 0.807297
472 1 0.414198 0.802442 0.781339
473 3 0.433163 0.800564 0.782922
474 5 0.41275 0.741586 0.720802
475 1 0.434306 0.788666 0.76654
476 3 0.422347 0.787038 0.753086
477 4 0.436438 0.780964 0.772238
478 1 0.436743 0.783907 0.736942
479 3 0.428517 0.790983 0.722301
480 4 0.430421 0.775892 0.735359
481 1 0.431183 0.807514 0.729661
482 3 0.4372 0.819036 0.719452
483 4 0.426841 0.813525 0.738208
484 1 0.45647 0.81196 0.715575
485 3 0.465077 0.824922 0.71779
486 4 0.463402 0.804884 0.711934
487 1 0.466068 0.823356 0.739633
488 3 0.482672 0.820914 0.733539
489 4 0.46264 0.821102 0.750871
490 1 0.490441 0.836068 0.744935
491 3 0.505522 0.833563 0.73433
492 4 0.496687 0.83206 0.753799
493 1 0.499048 0.841828 0.717157
494 3 0.504151 0.855917 0.722697
495 4 0.493488 0.841766 0.706394
496 1 0.522736 0.855479 0.715495
497 3 0.538122 0.861052 0.707898
498 4 0.528068 0.854164 0.726733
499 1 0.538503 0.851346 0.689854
500 3 0.538731 0.854853 0.671415
501 4 0.54292 0.842267 0.687638
502 1 0.519461 0.863369 0.672127
503 3 0.524488 0.869818 0.656141
504 4 0.509102 0.866187 0.675451
505 1 0.537741 0.881152 0.666113
506 3 0.548023 0.881403 0.651314
507 4 0.541473 0.887602 0.674106
508 1 0.560667 0.868065 0.659228
509 3 0.563866 0.8598 0.644033
510 4 0.568741 0.864997 0.666825
511 1 0.546805 0.849155 0.647119
512 3 0.542692 0.855041 0.630184
513 5 0.549775 0.778032 0.602898
514 1 0.521517 0.854477 0.633666
515 3 0.518471 0.863494 0.619104
516 4 0.511006 0.854728 0.639047
517 1 0.527001 0.877207 0.627889
518 3 0.536903 0.87464 0.61214
519 4 0.525783 0.884408 0.635723
520 1 0.555259 0.88109 0.620212
521 3 0.565466 0.875016 0.606284
522 4 0.563333 0.886099 0.625752
523 1 0.563181 0.858297 0.612773
524 3 0.558078 0.847714 0.600902
525 4 0.565999 0.851284 0.620766
526 1 0.537893 0.851847 0.600902
527 3 0.532714 0.856606 0.583096
528 4 0.531724 0.846775 0.608737
529 1 0.518623 0.86913 0.590852
530 3 0.522964 0.876581 0.575261
531 4 0.512682 0.874014 0.599636
532 1 0.540331 0.884158 0.582779
533 3 0.545815 0.884721 0.565369
534 4 0.546348 0.88948 0.590931
535 1 0.555259 0.870069 0.563549
536 3 0.549471 0.869443 0.546613
537 4 0.562267 0.86293 0.567426
538 1 0.529362 0.862304 0.552469
539 3 0.523421 0.871259 0.538936
540 4 0.521898 0.857107 0.559038
541 1 0.523726 0.886537 0.550649
542 3 0.525783 0.892799 0.533238
543 4 0.524107 0.893488 0.558721
544 1 0.547566 0.891046 0.533476
545 3 0.544444 0.889167 0.515036
546 4 0.55823 0.889105 0.536641
547 1 0.541778 0.872386 0.51567
548 3 0.530505 0.875454 0.500791
549 4 0.542006 0.862555 0.518123
550 1 0.512834 0.878522 0.513058
551 3 0.50834 0.887101 0.498022
552 4 0.50438 0.877771 0.521526
553 1 0.519841 0.901064 0.504986
554 3 0.52266 0.90382 0.486309
555 4 0.526087 0.906825 0.512583
556 1 0.53896 0.892173 0.484647
557 3 0.531419 0.890545 0.46779
558 4 0.548023 0.886725 0.486626
559 1 0.517328 0.878773 0.473805
560 3 0.508797 0.88516 0.459243
561 4 0.511844 0.871259 0.479424
562 1 0.49981 0.897746 0.471193
563 3 0.501181 0.905698 0.455049
564 4 0.494249 0.902755 0.48069
565 1 0.520299 0.911083 0.457502
566 3 0.521441 0.90958 0.438351
567 4 0.530124 0.912774 0.463834
568 1 0.526316 0.892549 0.438509
569 3 0.516414 0.890983 0.422286
570 4 0.532485 0.884847 0.440567
571 1 0.498591 0.888353 0.431782
572 3 0.489679 0.896869 0.418962
573 4 0.490746 0.884721 0.440013
574 1 0.494402 0.911709 0.427034
575 3 0.496306 0.917032 0.409307
576 4 0.49623 0.918848 0.435106
577 1 0.516795 0.913087 0.406616
578 3 0.511311 0.910207 0.388889
579 4 0.527992 0.911647 0.409623
580 1 0.505065 0.894114 0.39245
581 3 0.493716 0.896869 0.378997
582 4 0.504684 0.885535 0.397594
583 1 0.478635 0.904508 0.392134
584 3 0.472389 0.912148 0.377255
585 4 0.472389 0.907952 0.40163
586 1 0.490593 0.921791 0.374486
587 3 0.502171 0.923168 0.360082
588 4 0.495544 0.929618 0.379471
589 1 0.505446 0.906137 0.356679
590 3 0.490289 0.898936 0.349636
591 4 0.513063 0.899249 0.360715
592 1 0.497677 0.900564 0.328506
593 3 0.50735 0.888979 0.320988
594 4 0.502932 0.905761 0.319247
595 1 0.493869 0.876518 0.328189
596 3 0.500876 0.867564 0.315131
597 4 0.485414 0.872323 0.334758
598 1 0.488384 0.87176 0.299066
599 3 0.496001 0.872887 0.281735
600 4 0.478026 0.871259 0.294001
601 1 0.50933 0.886099 0.288145
602 3 0.520146 0.874452 0.290915
603 4 0.511235 0.89449 0.29321
604 1 0.530657 0.876581 0.271447
605 3 0.541625 0.882342 0.284505
606 4 0.533323 0.878522 0.259813
607 1 0.557468 0.871384 0.281418
608 3 0.558839 0.876894 0.298908
609 4 0.565618 0.878021 0.277857
610 1 0.555031 0.86268 0.309908
611 3 0.572092 0.858297 0.313311
612 4 0.550994 0.854164 0.31339
613 1 0.576205 0.875141 0.325499
614 3 0.581994 0.877207 0.30793
615 4 0.582603 0.869255 0.332067
616 1 0.594638 0.891234 0.312361
617 3 0.5791 0.89618 0.304843
618 5 0.588544 0.8277 0.286666
619 1 0.588849 0.910895 0.297563
620 3 0.589535 0.90382 0.280548
621 4 0.595704 0.918159 0.297563
622 1 0.572549 0.912085 0.271209
623 3 0.576586 0.917971 0.253799
624 4 0.560972 0.912586 0.27113
625 1 0.590525 0.929931 0.262187
626 3 0.601645 0.927301 0.24723
627 4 0.595552 0.936756 0.268993
628 1 0.608805 0.912273 0.254115
629 3 0.610328 0.899875 0.243194
630 4 0.617107 0.909267 0.262504
631 1 0.588468 0.899436 0.23987
632 3 0.578795 0.906763 0.227762
633 4 0.579709 0.897934 0.247151
634 1 0.582223 0.896619 0.210905
635 3 0.566761 0.890106 0.21692
636 4 0.587326 0.890858 0.202754
637 1 0.554879 0.897808 0.201092
638 3 0.555945 0.889355 0.185343
639 4 0.549394 0.905135 0.195632
640 1 0.543453 0.876268 0.194603
641 3 0.526392 0.876393 0.202912
642 4 0.547414 0.868128 0.199114
643 1 0.516109 0.87846 0.183207
644 3 0.516262 0.890232 0.195552
645 4 0.509787 0.870006 0.185185
646 1 0.494859 0.893237 0.19397
647 3 0.495392 0.907952 0.197452
648 4 0.494859 0.891922 0.206315
649 1 0.504304 0.912336 0.179725
650 3 0.499962 0.926111 0.186689
651 4 0.50994 0.9134 0.169278
652 1 0.483053 0.916093 0.168329
653 3 0.477873 0.908453 0.184473
654 4 0.474979 0.92154 0.163105
655 1 0.466753 0.896744 0.172048
656 3 0.480692 0.887602 0.170307
657 4 0.457232 0.895617 0.165005
658 1 0.472313 0.873513 0.179725
659 3 0.470409 0.87226 0.160731
660 4 0.46622 0.867752 0.186926
661 1 0.483281 0.859048 0.15994
662 3 0.4698 0.84928 0.158753
663 4 0.493945 0.855604 0.160177
664 1 0.469343 0.850094 0.135407
665 3 0.481606 0.853914 0.121795
666 4 0.459517 0.854227 0.131371
667 1 0.482977 0.83613 0.116413
668 3 0.48709 0.825485 0.130025
669 4 0.492726 0.840013 0.111903
670 1 0.488232 0.812837 0.114435
671 3 0.501333 0.803381 0.113169
672 4 0.481986 0.806512 0.107629
673 1 0.515881 0.814966 0.104701
674 3 0.521593 0.816969 0.122903
675 4 0.52106 0.821353 0.0974201
676 1 0.534923 0.80382 0.122507
677 3 0.550766 0.804634 0.131529
678 4 0.536827 0.794114 0.120845
679 1 0.555259 0.820852 0.123219
680 3 0.553508 0.824796 0.141738
681 4 0.552898 0.830182 0.119896
682 1 0.575215 0.825673 0.144112
683 3 0.576662 0.839261 0.136277
684 4 0.586259 0.821603 0.145537
685 1 0.579481 0.847777 0.154717
686 3 0.59738 0.845398 0.152659
687 4 0.578033 0.851096 0.166508
688 1 0.600274 0.857921 0.138018
689 3 0.611471 0.863181 0.15163
690 4 0.598065 0.864746 0.129709
691 1 0.629142 0.856919 0.1415
692 3 0.633102 0.861741 0.123852
693 4 0.633331 0.847777 0.14245
694 1 0.646279 0.869443 0.146724
695 3 0.632874 0.879211 0.149731
696 4 0.655724 0.874577 0.145457
697 1 0.629979 0.875391 0.17094
698 3 0.642242 0.884346 0.178458
699 4 0.627161 0.869505 0.180437
700 1 0.629218 0.898435 0.179092
701 3 0.61764 0.899311 0.19389
702 4 0.625409 0.904195 0.169832
703 1 0.626171 0.914402 0.20133
704 3 0.614746 0.919787 0.1893
705 4 0.634549 0.920977 0.20315
706 1 0.598675 0.924421 0.203387
707 3 0.604235 0.936068 0.191991
708 4 0.595476 0.927614 0.214783
709 1 0.58268 0.938197 0.184789
710 3 0.586564 0.947965 0.198164
711 5 0.587783 0.871604 0.161925
712 1 0.57651 0.961616 0.187955
713 3 0.561353 0.967502 0.194919
714 4 0.579024 0.96938 0.180437
715 1 0.549928 0.952348 0.190646
716 3 0.555183 0.937946 0.190329
717 4 0.543225 0.953225 0.180437
718 1 0.544063 0.933312 0.207898
719 3 0.52662 0.934627 0.211618
720 4 0.550537 0.932185 0.217474
721 1 0.522888 0.917032 0.208452
722 3 0.521517 0.919599 0.226971
723 5 0.532638 0.846395 0.187936
724 1 0.501638 0.913651 0.226179
725 3 0.505294 0.898936 0.231481
726 4 0.489756 0.913713 0.22428
727 1 0.514358 0.903507 0.249842
728 3 0.510244 0.892298 0.262346
729 4 0.521593 0.908328 0.257202
730 1 0.489451 0.89593 0.262821
731 3 0.479244 0.903444 0.250237
732 4 0.488156 0.897558 0.274296
733 1 0.461193 0.895429 0.256569
734 3 0.457765 0.904383 0.271605
735 4 0.452967 0.888291 0.257993
736 1 0.450682 0.917909 0.258468
737 3 0.434991 0.910332 0.261554
738 4 0.44893 0.923231 0.247784
739 1 0.43065 0.919036 0.279994
740 3 0.429888 0.933688 0.283001
741 4 0.435296 0.915466 0.290994
742 1 0.4078 0.933876 0.284584
743 3 0.399269 0.924859 0.297642
744 4 0.401935 0.936756 0.274612
745 1 0.389596 0.938447 0.307771
746 3 0.39051 0.928992 0.322808
747 4 0.378856 0.934377 0.306743
748 1 0.41077 0.932937 0.327635
749 3 0.404601 0.940513 0.342909
750 4 0.421738 0.936005 0.327002
751 1 0.402239 0.925861 0.355967
752 3 0.418006 0.92417 0.365068
753 4 0.396831 0.91722 0.356838
754 1 0.412065 0.934001 0.382399
755 3 0.413817 0.928929 0.400285
756 4 0.410389 0.943644 0.38422
757 1 0.39546 0.91891 0.398623
758 3 0.402239 0.913651 0.415005
759 4 0.386853 0.91315 0.393321
760 1 0.415416 0.902129 0.406774
761 3 0.426003 0.904258 0.42189
762 4 0.419682 0.895366 0.399256
763 1 0.43423 0.919286 0.414213
764 3 0.43522 0.924859 0.43202
765 4 0.439257 0.925736 0.406458
766 1 0.413664 0.930056 0.431545
767 3 0.41176 0.925861 0.450142
768 4 0.403153 0.933813 0.427034
769 1 0.409094 0.908641 0.44484
770 3 0.419148 0.906888 0.460035
771 4 0.405819 0.901252 0.438351
772 1 0.438343 0.908704 0.451725
773 3 0.441999 0.913901 0.469215
774 4 0.44794 0.909267 0.444682
775 1 0.436286 0.931121 0.465654
776 3 0.433468 0.930244 0.484172
777 5 0.435829 0.871547 0.435064
778 1 0.413741 0.924859 0.482035
779 3 0.416178 0.917909 0.498338
780 4 0.402163 0.924546 0.478237
781 1 0.42608 0.903694 0.490028
782 3 0.437809 0.903694 0.50459
783 4 0.428365 0.89618 0.483302
784 1 0.451443 0.914966 0.497942
785 3 0.451748 0.920476 0.515828
786 4 0.458984 0.919787 0.49082
787 1 0.434839 0.931935 0.512425
788 3 0.432021 0.92824 0.530785
789 4 0.427298 0.937821 0.506727
790 1 0.4209 0.91315 0.526037
791 3 0.428365 0.908391 0.542577
792 4 0.413436 0.907577 0.51931
793 1 0.446873 0.903507 0.532764
794 3 0.455328 0.907201 0.549304
795 4 0.455099 0.900376 0.524533
796 1 0.457156 0.923669 0.545426
797 3 0.454947 0.929493 0.562836
798 4 0.463097 0.930745 0.539886
799 1 0.433392 0.927426 0.561887
800 3 0.435144 0.920539 0.57906
801 4 0.422804 0.928679 0.557217
802 1 0.439028 0.905009 0.571304
803 3 0.449158 0.903632 0.586578
804 4 0.437962 0.896306 0.565685
805 1 0.467362 0.908203 0.575499
806 3 0.47536 0.911709 0.592513
807 4 0.473684 0.911334 0.56616
808 1 0.467591 0.928115 0.592672
809 3 0.47376 0.929368 0.609053
810 4 0.462716 0.936569 0.589506
811 1 0.456927 0.923669 0.620687
812 3 0.468124 0.919286 0.634061
813 4 0.445731 0.920726 0.622111
814 1 0.474674 0.904822 0.624406
815 3 0.491584 0.908954 0.631529
816 4 0.474979 0.89618 0.618471
817 1 0.496991 0.918096 0.614672
818 3 0.505217 0.925798 0.629709
819 4 0.498286 0.921916 0.603514
820 1 0.489298 0.937257 0.631687
821 3 0.495316 0.937195 0.650443
822 4 0.481529 0.944333 0.628917
823 1 0.484805 0.923482 0.657249
824 3 0.498515 0.921415 0.66912
825 4 0.477036 0.916844 0.659782
826 1 0.511616 0.914339 0.654242
827 3 0.525859 0.92154 0.661206
828 4 0.514358 0.907577 0.645774
829 1 0.522584 0.936443 0.649019
830 3 0.528144 0.941828 0.66548
831 4 0.519841 0.942455 0.64063
832 1 0.508569 0.943644 0.675214
833 3 0.513444 0.939825 0.693732
834 4 0.496839 0.944333 0.675847
835 1 0.52266 0.925548 0.68938
836 3 0.537589 0.927614 0.698876
837 4 0.523193 0.915842 0.686531
838 1 0.546881 0.937383 0.682969
839 3 0.550232 0.94928 0.69397
840 4 0.551908 0.937758 0.671732
841 1 0.538274 0.96005 0.681861
842 3 0.523955 0.958359 0.693495
843 4 0.535227 0.96531 0.671969
844 1 0.528753 0.973137 0.705207
845 3 0.534009 0.961177 0.715021
846 4 0.517633 0.97176 0.706711
847 1 0.546576 0.970445 0.729107
848 3 0.543377 0.959612 0.741136
849 4 0.552213 0.977959 0.733618
850 1 0.524259 0.966374 0.748259
851 3 0.507731 0.9603 0.748734
852 4 0.520375 0.973638 0.755461
853 1 0.507579 0.954978 0.727683
854 3 0.495163 0.965873 0.730848
855 4 0.505065 0.94665 0.732194
856 1 0.484119 0.960676 0.712963
857 3 0.473913 0.954853 0.727525
858 4 0.481529 0.956857 0.702437
859 1 0.459365 0.968316 0.726654
860 3 0.45152 0.958046 0.716999
861 4 0.455785 0.976894 0.722381
862 1 0.439866 0.951597 0.733776
863 3 0.427984 0.947714 0.720877
864 4 0.436362 0.949781 0.745331
865 1 0.418463 0.96268 0.717316
866 3 0.417092 0.958297 0.699588
867 4 0.413207 0.971008 0.719057
868 1 0.436134 0.96387 0.693416
869 3 0.435601 0.951659 0.682415
870 4 0.445502 0.969255 0.6912
871 1 0.447559 0.942016 0.696186
872 3 0.438419 0.928929 0.692229
873 4 0.456089 0.940013 0.704099
874 1 0.419453 0.93469 0.700617
875 3 0.409704 0.929242 0.685897
876 5 0.429507 0.863153 0.659514
877 1 0.409704 0.944584 0.675609
878 3 0.410922 0.937946 0.658357
879 4 0.410237 0.954164 0.674501
880 1 0.431792 0.934941 0.659861
881 3 0.427603 0.92154 0.653213
882 4 0.443293 0.935567 0.661997
883 1 0.425927 0.913901 0.673473
884 3 0.415035 0.904258 0.663739
885 4 0.425623 0.912461 0.685897
886 1 0.39805 0.914527 0.666033
887 3 0.394546 0.907577 0.649256
888 4 0.390357 0.921165 0.670782
889 1 0.405667 0.918785 0.637623
890 3 0.409856 0.906825 0.626781
891 4 0.410542 0.926299 0.631766
892 1 0.426537 0.901816 0.639522
893 3 0.422576 0.887915 0.633033
894 4 0.436058 0.902317 0.646407
895 1 0.40719 0.885911 0.64894
896 3 0.397745 0.87846 0.634853
897 4 0.400259 0.886913 0.658436
898 1 0.389824 0.893363 0.62591
899 3 0.391119 0.886913 0.608974
900 4 0.384721 0.902317 0.624644
901 1 0.412065 0.889292 0.606204
902 3 0.414655 0.875141 0.59924
903 4 0.423109 0.893863 0.604384
904 1 0.412141 0.866625 0.617442
905 3 0.403153 0.857483 0.606363
906 5 0.411836 0.797061 0.579097
907 1 0.383731 0.864496 0.610241
908 3 0.378627 0.86005 0.592672
909 4 0.374591 0.869818 0.614593
910 1 0.39089 0.871384 0.583096
911 3 0.394851 0.859925 0.571542
912 4 0.396831 0.879274 0.579772
913 1 0.413893 0.856982 0.581355
914 3 0.413817 0.843519 0.572966
915 4 0.422576 0.856481 0.589664
916 1 0.395994 0.837946 0.58547
917 3 0.386473 0.830557 0.572729