LAMMPS protain data file

        2694  atoms
        3586  bonds
           0  angles
           0  dihedrals
           0  impropers

           5  atom types
           5  bond types
           0  angle types
           0  dihedral types
           0  improper types

-200.0	200.0	xlo xhi
-200.0	200.0	ylo yhi
-200.0	200.0	zlo zhi

Masses

           1	27.0
           2	14.0
           3	28.0
           4	60.0
           5	60.0

Atoms

           1	1	1	1	0.0	24.169	-18.08	0.176
           2	1	1	3	0.0	22.425	-19.537	0.962
           3	1	1	4	0.0	24.639	-18.456	-1.238
           4	1	2	1	0.0	24.101997	-21.381	2.04
           5	1	2	3	0.0	22.354	-21.604002	3.688
           6	1	2	4	0.0	25.281	-22.327	2.267
           7	1	3	1	0.0	23.306	-19.668	5.352
           8	1	3	3	0.0	21.042	-19.131	5.891
           9	1	3	4	0.0	24.257002	-18.771	6.146
          10	1	4	1	0.0	20.649	-17.539	3.699
          11	1	4	3	0.0	18.416	-18.415	3.595
          12	1	4	4	0.0	20.868	-16.464	2.619
          13	1	5	1	0.0	19.078	-20.554	2.035
          14	1	5	3	0.0	17.384	-21.667	3.292
          15	1	5	4	0.0	19.754	-21.45	0.984
          16	1	6	1	0.0	19.015	-22.525	5.281
          17	1	6	3	0.0	17.31	-22.222	6.904
          18	1	6	4	0.0	20.225	-23.137	5.985
          19	1	7	1	0.0	17.724	-19.549	7.218
          20	1	7	3	0.0	15.338	-19.367	7.436
          21	1	7	4	0.0	18.45	-18.226	7.449
          22	1	8	1	0.0	14.918	-18.827	4.79
          23	1	8	3	0.0	12.917	-20.154	4.932
          24	1	8	4	0.0	15.081001	-18.199	3.375
          25	1	9	1	0.0	14.172	-22.555	4.543
          26	1	9	3	0.0	12.455	-23.305	6.025
          27	1	9	4	0.0	15.163	-23.647	4.117
          28	1	10	1	0.0	13.927	-22.891	8.31
          29	1	10	3	0.0	11.868	-22.341	9.41
          30	1	10	4	0.0	15.074	-22.79	9.297
          31	1	11	1	0.0	11.874	-19.736	8.604
          32	1	11	3	0.0	9.499	-19.968	8.521
          33	1	11	4	0.0	12.349	-18.329	8.242
          34	1	12	1	0.0	9.404	-20.804	5.925
          35	1	12	3	0.0	7.5910006	-22.288	6.4270005
          36	1	12	4	0.0	9.646	-20.869	4.425
          37	1	13	1	0.0	9.161	-24.297998	7.391
          38	1	13	3	0.0	7.403	-24.584	8.995
          39	1	13	4	0.0	10.297	-25.329	7.504
          40	1	14	1	0.0	8.444	-22.893	10.843
          41	1	14	3	0.0	6.202	-22.28	11.384
          42	1	14	4	0.0	9.437	-22.157	11.740999
          43	1	15	1	0.0	6.066	-20.287	9.495
          44	1	15	3	0.0	3.761	-20.912	9.38
          45	1	15	4	0.0	6.475	-19.108	8.618
          46	1	16	1	0.0	4.083	-22.565	7.194
          47	1	16	3	0.0	2.398	-23.984	8.166
          48	1	16	4	0.0	4.558	-23.067	5.833
          49	1	17	1	0.0	4.121	-25.345	9.753
          50	1	17	3	0.0	2.385	-25.528	11.379001
          51	1	17	5	0.0	4.514	-25.019459	9.303381
          52	1	18	1	0.0	2.678	-22.997997	12.376
          53	1	18	3	0.0	0.318	-22.725	12.556999
          54	1	18	4	0.0	3.403	-21.783	12.955
          55	1	19	1	0.0	-0.007	-21.823	9.985
          56	1	19	3	0.0	-2.087	-22.997997	10.068
          57	1	19	4	0.0	0.212	-21.015	8.691
          58	1	20	1	0.0	-1.164	-25.187998	8.688
          59	1	20	3	0.0	-1.146	-27.486	9.4
          60	1	20	4	0.0	-0.765	-25.7	7.296
          61	1	21	1	0.0	-0.91	-26.88	12.059
          62	1	21	3	0.0	-2.088	-28.938	12.374
          63	1	21	4	0.0	-0.623	-26.157	13.393
          64	1	22	1	0.0	-4.591	-27.819998	12.18
          65	1	22	3	0.0	-6.294	-28.661	10.768
          66	1	22	4	0.0	-5.615	-26.955	12.908
          67	1	23	1	0.0	-4.752	-28.62	8.494
          68	1	23	3	0.0	-3.821	-30.788002	9.081
          69	1	23	4	0.0	-4.071	-27.784	7.419
          70	1	24	1	0.0	-4.821	-32.0	6.832
          71	1	24	3	0.0	-3.108	-33.487	6.076
          72	1	24	4	0.0	-5.9349995	-32.44	5.882
          73	1	25	1	0.0	-1.374	-31.453	5.287
          74	1	25	3	0.0	-0.386	-30.157	7.044
          75	1	25	4	0.0	-1.17	-30.538	4.076
          76	1	26	1	0.0	1.584	-32.02	7.5929995
          77	1	26	3	0.0	2.751	-30.532999	6.089
          78	1	26	4	0.0	2.073	-33.396	7.992
          79	1	27	1	0.0	4.888	-30.167	7.794
          80	1	27	3	0.0	6.589	-30.088	6.116
          81	1	27	4	0.0	5.562	-29.864	9.139
          82	1	28	1	0.0	6.707	-32.807	5.739
          83	1	28	3	0.0	7.5729995	-32.223	3.609
          84	1	28	4	0.0	6.5910006	-34.326	5.956
          85	1	29	1	0.0	5.251	-31.949	2.319
          86	1	29	3	0.0	5.949	-30.026	1.083
          87	1	29	4	0.0	3.813	-32.296	1.894
          88	1	30	1	0.0	5.588	-28.257002	3.13
          89	1	30	3	0.0	7.6189995	-27.279	2.31
          90	1	30	4	0.0	4.94	-27.502998	4.315
          91	1	31	1	0.0	9.262	-28.751	3.899
          92	1	31	3	0.0	10.865	-28.804	2.113
          93	1	31	4	0.0	9.829	-29.532999	5.06
          94	1	32	1	0.0	9.583	-30.774	0.705
          95	1	32	3	0.0	10.17	-29.656	-1.331
          96	1	32	4	0.0	8.846	-32.064	0.388
          97	1	33	1	0.0	8.031	-27.947998	-1.299
          98	1	33	3	0.0	9.609	-26.358	-2.218
          99	1	33	4	0.0	6.5989995	-27.4	-1.095
         100	1	34	1	0.0	10.348	-25.359	0.196
         101	1	34	3	0.0	12.556	-25.085	-0.725
         102	1	34	4	0.0	10.289	-24.799	1.627
         103	1	35	1	0.0	13.283	-27.682	-0.394
         104	1	35	3	0.0	14.409999	-27.406	-2.484
         105	1	35	4	0.0	13.453	-29.077997	0.21
         106	1	36	1	0.0	12.271	-28.161	-4.012
         107	1	36	3	0.0	12.642999	-26.667	-5.814
         108	1	36	4	0.0	11.056	-28.947998	-4.506
         109	1	37	1	0.0	11.939	-24.420002	-4.469
         110	1	37	3	0.0	13.876	-23.456	-5.55
         111	1	37	4	0.0	11.023001	-23.475	-3.672
         112	1	38	1	0.0	15.383	-23.439	-3.252
         113	1	38	3	0.0	17.635	-23.866	-3.919
         114	1	38	4	0.0	15.712999	-23.123001	-1.799
         115	1	39	1	0.0	17.102	-26.370003	-4.96
         116	1	39	3	0.0	18.306	-26.359	-7.021
         117	1	39	4	0.0	16.671	-27.827	-4.927
         118	1	40	1	0.0	16.603	-24.617	-8.297
         119	1	40	3	0.0	17.815	-22.75	-7.379
         120	1	40	4	0.0	15.292	-24.104998	-8.84
         121	1	41	1	0.0	19.428	-22.46	-9.588
         122	1	41	3	0.0	17.654	-20.975	-10.273
         123	1	41	4	0.0	20.437	-22.925	-10.622
         124	1	42	1	0.0	19.31	-18.766	-10.305
         125	1	42	3	0.0	20.778	-18.164	-12.086
         126	1	42	4	0.0	20.029	-17.769	-9.396
         127	1	43	1	0.0	18.924	-18.677	-14.075001
         128	1	43	3	0.0	18.56	-16.959	-15.659
         129	1	43	5	0.0	18.67	-17.989674	-14.105695
         130	1	44	1	0.0	15.869001	-16.661	-15.032
         131	1	44	3	0.0	14.294	-15.708	-13.559
         132	1	44	5	0.0	16.802	-15.410565	-15.235534
         133	1	45	1	0.0	15.816	-13.406001	-13.165
         134	1	45	3	0.0	14.876	-12.485	-15.178
         135	1	45	4	0.0	17.077	-12.786	-12.568999
         136	1	46	1	0.0	13.728	-10.37	-13.88
         137	1	46	3	0.0	15.733	-9.115	-14.266
         138	1	46	4	0.0	12.917	-9.586	-12.85
         139	1	47	1	0.0	14.814999	-8.06	-16.645
         140	1	47	3	0.0	12.709	-7.1249995	-17.289
         141	1	47	4	0.0	15.376	-8.751	-17.888
         142	1	48	1	0.0	13.740999	-4.576	-17.494
         143	1	48	3	0.0	15.172	-4.118	-19.344
         144	1	48	4	0.0	14.127	-3.375	-16.616
         145	1	49	1	0.0	13.215	-3.921	-21.183
         146	1	49	3	0.0	13.519	-1.631	-20.527
         147	1	49	4	0.0	11.884	-4.322	-21.822
         148	1	50	1	0.0	14.211	-0.804	-23.085
         149	1	50	3	0.0	12.528999	0.222	-24.448997
         150	1	50	4	0.0	15.093001	-0.842	-24.329
         151	1	51	1	0.0	11.178	1.3	-22.32
         152	1	51	3	0.0	11.117	1.263	-19.948
         153	1	51	5	0.0	12.361	1.8506851	-21.808052
         154	1	52	1	0.0	8.485	2.263	-19.847
         155	1	52	3	0.0	6.234	1.566	-19.412
         156	1	52	4	0.0	7.9210005	3.683	-19.941
         157	1	53	1	0.0	6.713	-1.101	-19.776
         158	1	53	3	0.0	5.5469995	-2.063	-17.928
         159	1	53	4	0.0	7.0	-2.203	-20.795
         160	1	54	1	0.0	7.775	-2.475	-16.391
         161	1	54	3	0.0	8.871	-1.612	-14.436
         162	1	54	4	0.0	8.838	-3.569	-16.329
         163	1	55	1	0.0	7.285	0.671	-14.321
         164	1	55	3	0.0	7.261	0.535	-11.97
         165	1	55	4	0.0	6.643	1.971	-14.762999
         166	1	56	1	0.0	5.238	-1.201	-11.684
         167	1	56	3	0.0	6.444	-2.175	-9.89
         168	1	56	4	0.0	3.95	-1.953	-12.001999
         169	1	57	1	0.0	8.031	-3.738	-11.442
         170	1	57	3	0.0	9.758	-3.311	-9.821
         171	1	57	4	0.0	8.55	-4.658	-12.54
         172	1	58	1	0.0	10.557	-0.949	-10.972
         173	1	58	3	0.0	10.948	-0.25	-8.694
         174	1	58	4	0.0	10.917	0.104	-11.988
         175	1	59	1	0.0	8.396	0.678	-8.308
         176	1	59	3	0.0	8.509	-0.044	-6.023
         177	1	59	4	0.0	7.0450006	1.338	-8.542
         178	1	60	1	0.0	7.963	-2.682	-6.5590005
         179	1	60	3	0.0	9.557	-3.111	-4.8
         180	1	60	4	0.0	7.298	-3.923	-7.14
         181	1	61	1	0.0	11.736	-3.123	-6.422
         182	1	61	3	0.0	12.817001	-2.183	-4.482
         183	1	61	4	0.0	12.670001	-3.293	-7.635
         184	1	62	1	0.0	12.085	0.387	-5.019
         185	1	62	3	0.0	11.997	0.565	-2.623
         186	1	62	4	0.0	11.715	1.698	-5.746
         187	1	63	1	0.0	9.43	-0.347	-2.387
         188	1	63	3	0.0	10.123	-1.354	-0.312
         189	1	63	4	0.0	7.928	-0.535	-2.673
         190	1	64	1	0.0	11.142	-3.627	-1.456
         191	1	64	3	0.0	12.692	-3.378	0.373
         192	1	64	4	0.0	11.411	-4.824	-2.41
         193	1	65	1	0.0	14.457	-1.827	-0.991
         194	1	65	3	0.0	14.843	-0.829	1.165
         195	1	65	4	0.0	15.324	-1.252	-2.107
         196	1	66	1	0.0	12.851001	1.027	0.954
         197	1	66	3	0.0	12.488	0.813	3.305
         198	1	66	4	0.0	11.889	2.079	0.402
         199	1	67	1	0.0	10.801	-1.344	3.092
         200	1	67	3	0.0	11.824	-2.021	5.147
         201	1	67	4	0.0	9.674	-2.229	2.57
         202	1	68	1	0.0	13.512	-3.816	3.984
         203	1	68	3	0.0	14.944	-3.116	5.8029995
         204	1	68	4	0.0	14.075001	-4.911	3.064
         205	1	69	1	0.0	16.235	-1.216	4.384
         206	1	69	3	0.0	16.488	-0.051	6.469
         207	1	69	5	0.0	15.173001	-0.9155068	3.932558
         208	1	70	1	0.0	14.090999	1.193	6.322
         209	1	70	3	0.0	14.004	1.001	8.711
         210	1	70	5	0.0	14.587	2.424409	6.0716267
         211	1	71	1	0.0	12.630001	-1.33	8.726
         212	1	71	3	0.0	13.739	-2.133	10.663
         213	1	71	4	0.0	11.523001	-2.337	8.393
         214	1	72	1	0.0	16.009	-2.876	9.38
         215	1	72	3	0.0	17.137	-1.998	11.322
         216	1	72	4	0.0	16.963	-3.532	8.369
         217	1	73	1	0.0	17.155	0.584	10.442
         218	1	73	3	0.0	16.816	1.295	12.697999
         219	1	73	4	0.0	17.244	1.842	9.571
         220	1	74	1	0.0	14.130001	0.814	12.721
         221	1	74	3	0.0	14.49	0.046	14.968
         222	1	74	4	0.0	12.645001	0.817	12.291
         223	1	75	1	0.0	14.863	-2.552	14.294
         224	1	75	3	0.0	16.409	-2.545	16.149
         225	1	75	4	0.0	14.76	-3.908	13.596
         226	1	76	1	0.0	18.526	-1.635	14.704
         227	1	76	3	0.0	19.222	-0.421	16.662
         228	1	76	4	0.0	19.549	-1.425	13.596
         229	1	77	1	0.0	17.662	1.75	16.167
         230	1	77	3	0.0	17.277	2.104	18.501
         231	1	77	4	0.0	16.972	2.898	15.453
         232	1	78	1	0.0	15.372	0.212	18.769
         233	1	78	3	0.0	16.416	-0.581	20.785
         234	1	78	4	0.0	13.967	-0.363	18.488
         235	1	79	1	0.0	17.485	-2.805	19.663
         236	1	79	3	0.0	19.567	-3.221	20.713
         237	1	79	4	0.0	17.507	-4.094	18.859
         238	1	80	1	0.0	20.717	-0.857	19.972
         239	1	80	3	0.0	21.539	0.45	21.789
         240	1	80	4	0.0	21.554003	-0.585	18.717
         241	1	81	1	0.0	19.859	2.57	21.349
         242	1	81	3	0.0	18.086	1.797	22.762
         243	1	81	4	0.0	19.157	3.685	20.582
         244	1	82	1	0.0	19.21	2.722	25.077
         245	1	82	3	0.0	17.191	3.489	26.096
         246	1	82	4	0.0	20.264	2.937	26.173
         247	1	83	1	0.0	17.033	5.798	24.64
         248	1	83	3	0.0	14.734999	6.046	24.126001
         249	1	83	4	0.0	17.492	7.132	24.047
         250	1	84	1	0.0	14.581001	3.752	22.598001
         251	1	84	3	0.0	13.102	1.895	22.776
         252	1	84	4	0.0	14.82	3.422	21.133
         253	1	85	1	0.0	14.045	1.05	25.203001
         254	1	85	3	0.0	12.978	1.965	27.166
         255	1	85	4	0.0	15.139	0.46	26.104998
         256	1	86	1	0.0	10.41	1.546	26.202
         257	1	86	3	0.0	9.569	-0.122	24.688
         258	1	86	4	0.0	10.032	3.042	26.164999
         259	1	87	1	0.0	7.018	-0.043	25.703
         260	1	87	3	0.0	6.266	-0.535	23.481998
         261	1	87	4	0.0	5.872	0.004	26.691
         262	1	88	1	0.0	6.023	2.118	22.766
         263	1	88	3	0.0	6.544	1.328	20.55
         264	1	88	4	0.0	5.8029995	3.621	22.805
         265	1	89	1	0.0	9.236	1.472	20.878
         266	1	89	3	0.0	9.757	-0.479	19.616
         267	1	89	4	0.0	10.61	2.022	21.24
         268	1	90	1	0.0	8.768	-2.247	21.404
         269	1	90	3	0.0	7.7890005	-3.472	19.6
         270	1	90	4	0.0	8.567	-3.024	22.719
         271	1	91	1	0.0	5.4930005	-1.986	19.513
         272	1	91	3	0.0	5.588	-2.134	17.148
         273	1	91	4	0.0	4.238	-1.234	19.937
         274	1	92	1	0.0	7.258	0.016	16.859
         275	1	92	3	0.0	8.42	-1.054	15.053999
         276	1	92	4	0.0	7.819	1.416	17.009
         277	1	93	1	0.0	9.978	-2.613	16.672
         278	1	93	3	0.0	9.626	-4.371	15.097
         279	1	93	4	0.0	10.909999	-3.015	17.808
         280	1	94	1	0.0	7.365	-5.336	16.299
         281	1	94	3	0.0	6.491	-5.786	14.104
         282	1	94	4	0.0	6.362	-5.8	17.349
         283	1	95	1	0.0	5.636	-3.226	13.69
         284	1	95	3	0.0	6.2950006	-3.467	11.405
         285	1	95	4	0.0	5.025	-1.833	13.898
         286	1	96	1	0.0	8.91	-2.877	11.852
         287	1	96	3	0.0	9.546	-4.532	10.244
         288	1	96	4	0.0	10.16	-2.207	12.384999
         289	1	97	1	0.0	9.333	-6.6449995	11.958999
         290	1	97	3	0.0	8.435	-7.8090005	10.061
         291	1	97	4	0.0	9.459	-7.525	13.225001
         292	1	98	1	0.0	5.862	-7.0469995	10.508
         293	1	98	3	0.0	5.696	-7.077	8.104
         294	1	98	4	0.0	4.536	-6.662	11.19
         295	1	99	1	0.0	6.491	-4.506	7.778
         296	1	99	3	0.0	7.6649995	-5.078	5.785
         297	1	99	4	0.0	6.606	-2.986	7.956
         298	1	100	1	0.0	9.875	-6.04	7.0469995
         299	1	100	3	0.0	9.955	-7.728	5.3689995
         300	1	100	4	0.0	11.053999	-6.1589994	8.016
         301	1	101	1	0.0	8.286	-9.44	6.648
         302	1	101	3	0.0	7.261	-10.222	4.632
         303	1	101	4	0.0	7.627	-10.271	7.746
         304	1	102	1	0.0	5.863	-7.925	4.153
         305	1	102	3	0.0	6.634	-8.341	1.926
         306	1	102	4	0.0	4.912	-6.719	4.357
         307	1	103	1	0.0	8.714	-6.5929995	2.08
         308	1	103	3	0.0	10.223	-7.802	0.684
         309	1	103	5	0.0	7.773	-5.2137556	1.1191785
         310	1	104	1	0.0	10.711	-9.78	2.511
         311	1	104	3	0.0	10.666	-11.715	1.128
         312	1	104	4	0.0	11.379001	-10.118	3.835
         313	1	105	1	0.0	8.142	-12.507	1.872
         314	1	105	3	0.0	6.75	-13.027	0.007
         315	1	105	4	0.0	7.704	-13.322	3.088
         316	1	106	1	0.0	4.925	-11.041001	0.513
         317	1	106	3	0.0	4.674	-10.671	-1.859
         318	1	106	4	0.0	3.891	-10.315	1.385
         319	1	107	1	0.0	6.18	-8.39	-1.887
         320	1	107	3	0.0	6.669	-8.79	-4.176
         321	1	107	4	0.0	6.814	-7.077	-1.474
         322	1	108	1	0.0	8.604	-10.574	-3.902
         323	1	108	3	0.0	7.765	-11.724	-5.805
         324	1	108	4	0.0	9.781	-11.302001	-3.27
         325	1	109	1	0.0	5.804	-13.052	-4.481
         326	1	109	3	0.0	4.343	-12.704	-6.36
         327	1	109	4	0.0	5.087	-13.908	-3.439
         328	1	110	1	0.0	3.601	-10.176	-5.616
         329	1	110	3	0.0	3.73	-9.369	-7.8689995
         330	1	110	4	0.0	3.085	-9.032	-4.767
         331	1	111	1	0.0	6.452	-9.118	-7.892
         332	1	111	3	0.0	6.39	-9.9	-10.142
         333	1	111	4	0.0	7.872	-8.816	-7.46
         334	1	112	1	0.0	6.359	-12.556999	-9.506
         335	1	112	3	0.0	4.899	-13.008	-11.331
         336	1	112	4	0.0	6.638	-13.891001	-8.814
         337	1	113	1	0.0	2.631	-12.154	-10.087
         338	1	113	3	0.0	1.549	-11.11	-11.931001
         339	1	113	4	0.0	1.555	-11.98	-9.011
         340	1	114	1	0.0	3.446	-9.13	-12.242
         341	1	114	3	0.0	3.99	-9.465	-14.55
         342	1	114	4	0.0	3.898	-7.76	-11.673001
         343	1	115	1	0.0	6.434	-10.627	-14.065
         344	1	115	3	0.0	6.414	-12.056	-15.953
         345	1	115	4	0.0	7.772	-10.952	-13.42
         346	1	116	1	0.0	4.458	-13.764	-14.968
         347	1	116	3	0.0	2.279	-14.509	-15.531
         348	1	116	4	0.0	4.571	-15.004	-14.097
         349	1	117	1	0.0	1.304	-11.906001	-16.105
         350	1	117	3	0.0	-0.802	-12.94	-15.659
         351	1	117	4	0.0	1.082	-12.374	-17.548
         352	1	118	1	0.0	-0.55	-12.639	-12.841
         353	1	118	3	0.0	-2.013	-14.533	-12.637
         354	1	118	4	0.0	-1.835	-11.785	-12.891001
         355	1	119	1	0.0	0.025	-16.368	-13.078001
         356	1	119	3	0.0	2.034	-16.424	-11.777001
         357	1	119	4	0.0	0.463	-17.017	-14.399
         358	1	120	1	0.0	1.021	-18.184	-9.897
         359	1	120	3	0.0	2.03	-20.176	-10.721
         360	1	120	4	0.0	0.032	-18.935	-8.991
         361	1	121	1	0.0	4.595	-19.387	-10.385
         362	1	121	3	0.0	5.72	-21.389	-9.761
         363	1	121	4	0.0	5.667	-18.326	-10.511
         364	1	122	1	0.0	4.965	-21.227	-7.113
         365	1	122	3	0.0	3.106	-22.508	-7.966
         366	1	122	4	0.0	4.864	-20.559	-5.745
         367	1	123	1	0.0	3.441	-24.656998	-6.383
         368	1	123	3	0.0	1.892	-23.255	-5.179
         369	1	123	4	0.0	4.186	-25.644	-5.477
         370	1	124	1	0.0	-0.241	-24.917	-5.696
         371	1	124	3	0.0	-1.308	-24.099	-3.752
         372	1	124	4	0.0	-1.122	-26.027998	-6.3350005
         373	1	125	1	0.0	0.175	-25.578	-1.986
         374	1	125	3	0.0	0.412	-24.137	-0.11
         375	1	125	4	0.0	0.879	-26.804	-1.37
         376	1	126	1	0.0	1.848	-22.206001	-1.451
         377	1	126	3	0.0	1.335	-19.887	-1.34
         378	1	126	4	0.0	3.283	-21.953999	-1.915
         379	1	127	1	0.0	-0.995	-20.056	-2.71
         380	1	127	3	0.0	-1.769	-18.394	-1.173
         381	1	127	4	0.0	-1.921	-20.36	-3.885
         382	1	128	1	0.0	-3.011	-20.005	0.562
         383	1	128	3	0.0	-2.352	-18.713	2.456
         384	1	128	4	0.0	-3.804	-21.201	1.09
         385	1	129	1	0.0	0.242	-19.58	2.448
         386	1	129	3	0.0	0.741	-17.321	3.094
         387	1	129	4	0.0	1.479	-20.49	2.347
         388	1	130	1	0.0	1.022	-16.39	0.543
         389	1	130	3	0.0	0.129	-14.348	1.407
         390	1	130	4	0.0	1.343	-16.304	-0.949
         391	1	131	1	0.0	-2.5	-15.016	0.984
         392	1	131	3	0.0	-2.923	-13.798	3.028
         393	1	131	4	0.0	-3.776	-15.556999	0.343
         394	1	132	1	0.0	-2.354	-15.909999	4.677
         395	1	132	3	0.0	-1.487	-14.294	6.202
         396	1	132	4	0.0	-2.226	-17.307	5.26
         397	1	133	1	0.0	0.977	-14.157999	5.082
         398	1	133	3	0.0	1.016	-11.808	5.535
         399	1	133	4	0.0	2.314	-14.555	4.48
         400	1	134	1	0.0	-0.391	-11.103001	3.314
         401	1	134	3	0.0	-1.303	-9.445	4.794
         402	1	134	4	0.0	-0.915	-11.072	1.876
         403	1	135	1	0.0	-3.433	-10.961001	5.568
         404	1	135	3	0.0	-3.176	-9.963	7.727
         405	1	135	4	0.0	-4.653	-11.901	5.502
         406	1	136	1	0.0	-1.298	-11.733	8.595
         407	1	136	3	0.0	-0.684	-9.773	9.834
         408	1	136	4	0.0	-0.427	-12.97	8.79
         409	1	137	1	0.0	1.242	-8.98	8.117
         410	1	137	3	0.0	0.799	-6.7170005	8.635
         411	1	137	4	0.0	2.446	-9.07	7.213
         412	1	138	1	0.0	-1.269	-6.43	6.883
         413	1	138	3	0.0	-2.499	-5.065	8.442
         414	1	138	4	0.0	-2.065	-6.4549994	5.589
         415	1	139	1	0.0	-3.512	-7.173	9.863
         416	1	139	3	0.0	-3.048	-6.01	11.898
         417	1	139	4	0.0	-4.293	-8.458	10.093
         418	1	140	1	0.0	-0.566	-7.046	12.234999
         419	1	140	3	0.0	0.15	-4.976	13.191
         420	1	140	4	0.0	0.61	-8.009	12.261
         421	1	141	1	0.0	0.554	-3.701	10.819
         422	1	141	3	0.0	-0.105	-1.554	11.575001
         423	1	141	4	0.0	0.949	-3.424	9.377
         424	1	142	1	0.0	-2.74	-2.142	11.918999
         425	1	142	3	0.0	-3.41	-1.616	14.164
         426	1	142	4	0.0	-4.021	-2.113	11.062
         427	1	143	1	0.0	-3.085	-4.136	15.155001
         428	1	143	3	0.0	-2.346	-3.141	17.2
         429	1	143	4	0.0	-3.106	-5.637	15.331
         430	1	144	1	0.0	0.177	-2.669	16.39
         431	1	144	3	0.0	0.051	-0.623	17.61
         432	1	144	4	0.0	1.562	-2.834	15.768
         433	1	145	1	0.0	-1.093	0.824	15.583
         434	1	145	3	0.0	-2.313	1.959	17.304
         435	1	145	4	0.0	-1.425	1.38	14.212999
         436	1	146	1	0.0	-4.341	0.122	17.416
         437	1	146	3	0.0	-4.374	0.578	19.774
         438	1	146	4	0.0	-5.4010005	-0.914	17.021
         439	1	147	1	0.0	-2.415	-1.217	20.391
         440	1	147	3	0.0	-1.656	0.297	22.082003
         441	1	147	4	0.0	-1.545	-2.47	20.423
         442	1	148	1	0.0	-0.207	1.868	20.365
         443	1	148	3	0.0	-1.001	3.657	21.769999
         444	1	148	4	0.0	0.738	2.321	19.223
         445	1	149	1	0.0	-3.263	4.117	20.341
         446	1	149	3	0.0	-4.185	4.759	22.461
         447	1	149	4	0.0	-4.286	4.235	19.209
         448	1	150	1	0.0	-4.937	2.238	23.166
         449	1	150	3	0.0	-4.359	2.768	25.431
         450	1	150	4	0.0	-5.53	0.834	23.103003
         451	1	151	1	0.0	-1.728	2.115	25.174
         452	1	151	3	0.0	-1.258	3.897	26.694
         453	1	151	4	0.0	-0.453	1.375	24.8
         454	1	152	1	0.0	-1.151	5.831	24.766998
         455	1	152	3	0.0	-2.188	7.318	26.354
         456	1	152	4	0.0	-0.831	6.581	23.478
         457	1	153	1	0.0	-4.75	6.676	25.707
         458	1	153	3	0.0	-5.214	7.06	28.036
         459	1	153	4	0.0	-6.005	6.284	24.943
         460	1	154	1	0.0	-4.607	4.52	28.819
         461	1	154	3	0.0	-3.683	5.534	30.782001
         462	1	154	4	0.0	-4.576	2.995	28.86
         463	1	155	1	0.0	-1.207	5.933	29.721
         464	1	155	3	0.0	-0.707	8.017	30.783
         465	1	155	4	0.0	0.081	5.69	28.980999
         466	1	156	1	0.0	-2.537	9.499	29.389
         467	1	156	3	0.0	-3.598	10.52	31.303
         468	1	156	4	0.0	-2.801	10.185	28.052002
         469	1	157	1	0.0	-5.97	9.196	30.999002
         470	1	157	3	0.0	-6.0729995	9.426	33.383
         471	1	157	4	0.0	-7.196	8.519	30.412
         472	1	158	1	0.0	-4.879	6.998	33.879
         473	1	158	3	0.0	-2.973	5.55	33.759
         474	1	158	4	0.0	-5.69	5.739	34.158
         475	1	159	1	0.0	-1.117	7.454	34.311
         476	1	159	3	0.0	0.311	5.8029995	35.298
         477	1	159	4	0.0	-0.54	8.847	34.357
         478	1	160	1	0.0	-0.809	5.978	37.775
         479	1	160	3	0.0	-0.435	3.601	37.945
         480	1	160	4	0.0	-1.349	6.603	39.079
         481	1	161	1	0.0	-2.898	2.955	36.965
         482	1	161	3	0.0	-2.035	1.04	35.84
         483	1	161	4	0.0	-4.407	2.938	36.73
         484	1	162	1	0.0	-1.013	2.444	33.723
         485	1	162	3	0.0	1.113	1.371	33.456
         486	1	162	4	0.0	-1.12	3.317	32.479
         487	1	163	1	0.0	2.364	2.83	35.407
         488	1	163	3	0.0	3.729	0.948	35.969
         489	1	163	4	0.0	2.796	3.985	36.302
         490	1	164	1	0.0	1.821	-0.307	37.485
         491	1	164	3	0.0	1.647	-2.605	36.922
         492	1	164	4	0.0	0.989	-0.395	38.744
         493	1	165	1	0.0	0.883	-2.16	34.295
         494	1	165	3	0.0	1.303	-2.245	31.935
         495	1	165	4	0.0	-0.606	-2.252	33.93
         496	1	166	1	0.0	3.687	-0.878	32.087
         497	1	166	3	0.0	5.831	-0.721	33.147
         498	1	166	4	0.0	3.672	0.619	31.763
         499	1	167	1	0.0	6.704	-3.146	32.077
         500	1	167	3	0.0	6.37	-3.806	29.796999
         501	1	167	4	0.0	6.682	-4.172	33.212
         502	1	168	1	0.0	8.801	-4.973	29.584
         503	1	168	3	0.0	7.75	-6.555	28.14
         504	1	168	4	0.0	10.298	-5.242	29.715
         505	1	169	1	0.0	7.052	-8.285	30.128
         506	1	169	3	0.0	5.024	-8.798	28.97
         507	1	169	4	0.0	7.116	-9.164	31.389
         508	1	170	1	0.0	3.658	-6.612	29.873999
         509	1	170	3	0.0	2.627	-6.42	27.724
         510	1	170	4	0.0	3.101	-5.528	30.799
         511	1	171	1	0.0	4.688	-5.084	26.552
         512	1	171	3	0.0	4.28	-6.348	24.568
         513	1	171	4	0.0	5.832	-4.094	26.343002
         514	1	172	1	0.0	5.801	-8.476	25.340002
         515	1	172	3	0.0	4.126	-9.846	24.254
         516	1	172	4	0.0	6.9730005	-9.32	25.879
         517	1	173	1	0.0	2.448	-9.908	26.395998
         518	1	173	3	0.0	0.645	-9.897	24.837
         519	1	173	4	0.0	1.901	-10.018	27.826
         520	1	174	1	0.0	0.642	-7.1849995	24.544
         521	1	174	3	0.0	0.111	-7.525	22.213
         522	1	174	4	0.0	0.634	-5.6849995	24.86
         523	1	175	1	0.0	2.72	-7.845	21.433
         524	1	175	3	0.0	1.845	-9.528	19.948
         525	1	175	4	0.0	4.241	-7.663	21.309
         526	1	176	1	0.0	1.875	-11.52	21.822
         527	1	176	3	0.0	-0.088	-12.386	20.749
         528	1	176	4	0.0	2.256	-12.405	22.997997
         529	1	177	1	0.0	-1.827	-10.677	22.008
         530	1	177	3	0.0	-3.003	-10.612	19.923
         531	1	177	4	0.0	-2.522	-9.87	23.11
         532	1	178	1	0.0	-1.523	-8.578	18.867
         533	1	178	3	0.0	-1.987	-9.786	16.831
         534	1	178	4	0.0	-0.663	-7.318	18.702
         535	1	179	1	0.0	0.227	-11.358	16.935
         536	1	179	3	0.0	-0.986	-13.170999	15.998999
         537	1	179	4	0.0	1.67	-11.794	17.099
         538	1	180	1	0.0	-2.235	-13.92	18.336
         539	1	180	3	0.0	-4.126	-14.427	16.96
         540	1	180	4	0.0	-2.48	-14.247001	19.806
         541	1	181	1	0.0	-5.193	-11.93	17.069
         542	1	181	3	0.0	-5.779	-12.328	14.78
         543	1	181	4	0.0	-5.689	-10.573	17.609
         544	1	182	1	0.0	-3.466	-11.343	13.734999
         545	1	182	3	0.0	-3.729	-12.936999	11.963
         546	1	182	4	0.0	-2.209	-10.533	13.510999
         547	1	183	1	0.0	-2.696	-15.035	13.369999
         548	1	183	3	0.0	-4.434	-16.392	12.438
         549	1	183	4	0.0	-1.685	-15.85	14.211
         550	1	184	1	0.0	-6.22	-15.915	14.432
         551	1	184	3	0.0	-8.072	-16.11	12.949001
         552	1	184	5	0.0	-4.882	-15.7258005	14.234729
         553	1	185	1	0.0	-7.679	-13.663	11.752999
         554	1	185	3	0.0	-8.074	-14.706	9.632
         555	1	185	4	0.0	-7.532	-12.142	11.669
         556	1	186	1	0.0	-5.408	-15.117	9.064
         557	1	186	3	0.0	-4.9	-17.176	8.02
         558	1	186	4	0.0	-4.044	-14.526001	8.777
         559	1	187	1	0.0	-5.476	-18.763	10.127
         560	1	187	3	0.0	-6.396	-20.667	9.054
         561	1	187	4	0.0	-5.229	-19.264	11.575001
         562	1	188	1	0.0	-8.789	-19.749	8.448
         563	1	188	3	0.0	-9.165	-20.399	6.218
         564	1	188	4	0.0	-10.141	-19.081	8.74
         565	1	189	1	0.0	-7.146	-18.873	5.131
         566	1	189	3	0.0	-6.7890005	-20.734	3.677
         567	1	189	4	0.0	-6.431	-17.541	4.828
         568	1	190	1	0.0	-4.629	-21.742998	4.811
         569	1	190	3	0.0	-5.252	-24.003	4.425
         570	1	190	4	0.0	-3.257	-21.731	5.476
         571	1	191	1	0.0	-6.934	-24.181	6.531
         572	1	191	3	0.0	-8.151	-25.557	5.002
         573	1	191	4	0.0	-7.497	-24.068	7.974
         574	1	192	1	0.0	-9.858	-23.597	4.22
         575	1	192	3	0.0	-9.775	-24.214	1.92
         576	1	192	4	0.0	-10.955	-22.545	4.453
         577	1	193	1	0.0	-7.606	-22.697	1.313
         578	1	193	3	0.0	-6.986	-24.332	-0.306
         579	1	193	5	0.0	-8.223	-20.371147	0.26155293
         580	1	194	1	0.0	-5.733	-25.988	1.459
         581	1	194	3	0.0	-6.4869995	-28.076002	0.648
         582	1	194	4	0.0	-4.684	-26.373	2.479
         583	1	195	1	0.0	-8.99	-27.867	1.728
         584	1	195	3	0.0	-10.306	-28.595001	-0.124
         585	1	195	4	0.0	-9.888	-27.923	2.958
         586	1	196	1	0.0	-10.782	-26.011	-1.047
         587	1	196	3	0.0	-9.816	-23.861	-1.488
         588	1	196	4	0.0	-12.123	-25.401	-0.632
         589	1	197	1	0.0	-8.554	-24.659	-3.799
         590	1	197	3	0.0	-8.686	-22.782001	-5.228
         591	1	197	4	0.0	-7.6589994	-25.548	-4.668
         592	1	198	1	0.0	-11.381	-22.922003	-5.642
         593	1	198	3	0.0	-11.875	-20.585	-5.67
         594	1	198	4	0.0	-12.729	-23.534	-6.034
         595	1	199	1	0.0	-11.709	-20.264	-2.94
         596	1	199	3	0.0	-10.573	-18.231	-2.484
         597	1	199	4	0.0	-12.182999	-20.553	-1.511
         598	1	200	1	0.0	-8.082	-19.155	-3.305
         599	1	200	3	0.0	-6.416	-18.424	-4.831
         600	1	200	4	0.0	-7.025	-19.831	-2.423
         601	1	201	1	0.0	-7.822	-19.136	-7.089
         602	1	201	3	0.0	-10.07	-18.958	-7.808
         603	1	201	4	0.0	-7.3550005	-20.448	-7.719
         604	1	202	1	0.0	-9.451	-17.046	-9.767
         605	1	202	3	0.0	-7.865	-17.336	-11.526001
         606	1	202	4	0.0	-9.456	-15.505	-9.746
         607	1	203	1	0.0	-9.592	-19.005	-13.013
         608	1	203	3	0.0	-7.822	-20.35	-13.873
         609	1	203	4	0.0	-9.323	-18.03	-14.170999
         610	1	204	1	0.0	-7.227	-21.461	-11.292
         611	1	204	3	0.0	-4.897	-21.873999	-11.553001
         612	1	204	4	0.0	-7.536	-22.834	-11.888
         613	1	205	1	0.0	-4.255	-19.304	-12.308
         614	1	205	3	0.0	-2.705	-18.18	-10.896999
         615	1	205	4	0.0	-4.19	-18.823	-13.744
         616	1	206	1	0.0	-4.348	-16.063	-10.321
         617	1	206	3	0.0	-5.684	-16.763	-8.453
         618	1	206	4	0.0	-5.181	-14.856	-10.752
         619	1	207	1	0.0	-3.621	-16.443	-6.629
         620	1	207	3	0.0	-3.624	-14.354001	-5.429
         621	1	207	4	0.0	-2.233	-16.709	-6.069
         622	1	208	1	0.0	-6.405	-14.282	-5.187
         623	1	208	3	0.0	-8.02	-15.966	-4.735
         624	1	208	4	0.0	-7.086	-13.342001	-6.199
         625	1	209	1	0.0	-8.596	-15.018	-2.192
         626	1	209	3	0.0	-10.558	-13.744	-2.707
         627	1	209	4	0.0	-8.428	-14.402	-0.811
         628	1	210	1	0.0	-11.903	-15.896	-3.816
         629	1	210	3	0.0	-13.374	-17.623	-3.027
         630	1	210	4	0.0	-11.887	-16.633	-5.146
         631	1	211	1	0.0	-14.286	-16.152	-0.856
         632	1	211	3	0.0	-14.34	-14.049	0.261
         633	1	211	4	0.0	-13.678	-16.943	0.302
         634	1	212	1	0.0	-16.984	-13.549	-0.19
         635	1	212	3	0.0	-17.005	-12.197999	1.788
         636	1	212	4	0.0	-18.373	-13.687	-0.814
         637	1	213	1	0.0	-17.323	-14.285	3.512
         638	1	213	3	0.0	-15.982	-13.021	5.042
         639	1	213	4	0.0	-17.778	-15.593999	4.158
         640	1	214	1	0.0	-13.596	-13.981	4.157
         641	1	214	3	0.0	-12.396999	-11.949001	4.467
         642	1	214	4	0.0	-12.515	-14.961999	3.71