ITEM: TIMESTEP
0
ITEM: NUMBER OF ATOMS
2694
ITEM: BOX BOUNDS ss ss ss
-29.042 30.616
-46.486 46.906
-52.87 43.543
ITEM: ATOMS id type xs ys zs
1 1 0.891934 0.304159 0.550196
2 3 0.862701 0.288558 0.558348
3 4 0.899812 0.300133 0.535529
4 1 0.890811 0.268813 0.569529
5 3 0.861511 0.266425 0.586622
6 4 0.910574 0.258684 0.571883
7 1 0.877468 0.287155 0.603881
8 3 0.839519 0.292905 0.609472
9 4 0.893409 0.29676 0.612117
10 1 0.832931 0.309952 0.586736
11 3 0.795501 0.300572 0.585658
12 4 0.836602 0.321462 0.575534
13 1 0.806598 0.277668 0.569477
14 3 0.778202 0.265751 0.582515
15 4 0.817929 0.268074 0.558576
16 1 0.805542 0.256564 0.603145
17 3 0.776962 0.259808 0.619979
18 4 0.825824 0.250011 0.610447
19 1 0.783902 0.288429 0.623235
20 3 0.743907 0.290378 0.625497
21 4 0.796071 0.302596 0.625631
22 1 0.736867 0.29616 0.598052
23 3 0.703326 0.281951 0.599525
24 4 0.739599 0.302885 0.583376
25 1 0.724362 0.256243 0.59549
26 3 0.695581 0.248212 0.610862
27 4 0.740974 0.24455 0.591072
28 1 0.720255 0.252645 0.634562
29 3 0.685742 0.258534 0.645971
30 4 0.739482 0.253726 0.644799
31 1 0.685843 0.286427 0.637611
32 3 0.646032 0.283943 0.63675
33 4 0.693805 0.301493 0.633856
34 1 0.64444 0.274991 0.609824
35 3 0.61405 0.259101 0.615031
36 4 0.648496 0.274295 0.594266
37 1 0.640367 0.237579 0.62503
38 3 0.610899 0.234517 0.641667
39 4 0.659409 0.22654 0.626202
40 1 0.628348 0.252623 0.660834
41 3 0.590767 0.259187 0.666445
42 4 0.644993 0.260504 0.670148
43 1 0.588488 0.280527 0.646853
44 3 0.549851 0.273835 0.64566
45 4 0.595343 0.293151 0.637756
46 1 0.555248 0.256135 0.622987
47 3 0.527004 0.240941 0.633068
48 4 0.56321 0.25076 0.60887
49 1 0.555885 0.226368 0.649529
50 3 0.526786 0.224409 0.666394
51 5 0.562473 0.229854 0.644865
52 1 0.531697 0.251499 0.676734
53 3 0.492139 0.254422 0.678612
54 4 0.54385 0.264509 0.68274
55 1 0.486691 0.26408 0.651935
56 3 0.451825 0.251499 0.652796
57 4 0.490362 0.272732 0.638513
58 1 0.467297 0.22805 0.638482
59 3 0.467599 0.203444 0.645867
60 4 0.473985 0.222567 0.624044
61 1 0.471555 0.209932 0.673447
62 3 0.451809 0.187896 0.676714
63 4 0.476365 0.217674 0.687283
64 1 0.409853 0.199867 0.674702
65 3 0.381307 0.190862 0.660056
66 4 0.392688 0.209129 0.682252
67 1 0.407154 0.191301 0.63647
68 3 0.42276 0.168087 0.642559
69 4 0.418569 0.200253 0.62532
70 1 0.405998 0.15511 0.619232
71 3 0.434711 0.139188 0.611391
72 4 0.387324 0.150398 0.609378
73 1 0.463777 0.160967 0.603207
74 3 0.480338 0.174844 0.621431
75 4 0.467196 0.170764 0.590646
76 1 0.51336 0.154895 0.627125
77 3 0.532921 0.170818 0.611525
78 4 0.521556 0.140162 0.631263
79 1 0.568742 0.174737 0.62921
80 3 0.597254 0.175582 0.611805
81 4 0.58004 0.177981 0.64316
82 1 0.599232 0.146469 0.607895
83 3 0.613748 0.152722 0.585803
84 4 0.597288 0.130204 0.610146
85 1 0.574827 0.155656 0.572423
86 3 0.586527 0.176246 0.559603
87 4 0.550722 0.15194 0.568015
88 1 0.580475 0.195188 0.580835
89 3 0.614519 0.20566 0.572329
90 4 0.569613 0.203262 0.593125
91 1 0.64206 0.189898 0.588811
92 3 0.66893 0.189331 0.570286
93 4 0.651564 0.181525 0.600853
94 1 0.64744 0.168237 0.555682
95 3 0.65728 0.180208 0.534565
96 4 0.635087 0.154424 0.552394
97 1 0.621425 0.198497 0.534897
98 3 0.647876 0.215522 0.525365
99 4 0.597422 0.204364 0.537013
100 1 0.660264 0.226219 0.550403
101 3 0.697274 0.229152 0.54085
102 4 0.659275 0.232215 0.565245
103 1 0.709461 0.201345 0.544283
104 3 0.728352 0.2043 0.522606
105 4 0.71231 0.186397 0.550548
106 1 0.692497 0.196216 0.506757
107 3 0.698733 0.212213 0.488067
108 4 0.672131 0.187789 0.501634
109 1 0.686932 0.236273 0.502017
110 3 0.719401 0.246595 0.490805
111 4 0.671578 0.246392 0.510284
112 1 0.744661 0.246777 0.51464
113 3 0.78241 0.242205 0.507722
114 4 0.750193 0.250161 0.529711
115 1 0.773475 0.215393 0.496925
116 3 0.793657 0.215511 0.475548
117 4 0.766251 0.199792 0.497267
118 1 0.765111 0.234164 0.462313
119 3 0.785427 0.254155 0.471835
120 4 0.743136 0.239646 0.456681
121 1 0.812464 0.25726 0.448923
122 3 0.782728 0.27316 0.441818
123 4 0.829377 0.252281 0.438198
124 1 0.810486 0.296813 0.441486
125 3 0.835093 0.303259 0.423013
126 4 0.822538 0.307489 0.450914
127 1 0.804016 0.297766 0.402383
128 3 0.797915 0.316162 0.385954
129 5 0.799759 0.305126 0.402065
130 1 0.752808 0.319353 0.392457
131 3 0.726407 0.329557 0.407735
132 5 0.768447 0.332742 0.390346
133 1 0.751919 0.354206 0.411822
134 3 0.736163 0.364068 0.390943
135 4 0.773056 0.360845 0.418004
136 1 0.71692 0.386714 0.404406
137 3 0.750528 0.400152 0.400402
138 4 0.703326 0.395109 0.415089
139 1 0.73514 0.411449 0.375727
140 3 0.699839 0.42146 0.369048
141 4 0.744544 0.40405 0.362835
142 1 0.717138 0.448754 0.366921
143 3 0.741124 0.453658 0.347733
144 4 0.723608 0.461613 0.376028
145 1 0.708321 0.455767 0.328659
146 3 0.713416 0.480287 0.335463
147 4 0.68601 0.451473 0.322031
148 1 0.725016 0.489143 0.308931
149 3 0.696822 0.500128 0.294784
150 4 0.7398 0.488736 0.296029
151 1 0.674176 0.511671 0.316866
152 3 0.673154 0.511275 0.341468
153 5 0.694006 0.517568 0.322176
154 1 0.629036 0.521983 0.342516
155 3 0.591304 0.514519 0.347028
156 4 0.619582 0.537187 0.341541
157 1 0.599333 0.485962 0.343252
158 3 0.579788 0.475662 0.36242
159 4 0.604144 0.474163 0.332683
160 1 0.617134 0.47125 0.378362
161 3 0.635506 0.480491 0.398639
162 4 0.634953 0.459536 0.379005
163 1 0.608921 0.504936 0.399832
164 3 0.608519 0.50348 0.424217
165 4 0.59816 0.518856 0.395248
166 1 0.574609 0.484892 0.427183
167 3 0.594824 0.474462 0.445791
168 4 0.553019 0.47684 0.423885
169 1 0.621425 0.457727 0.429693
170 3 0.650374 0.462299 0.446506
171 4 0.630125 0.447876 0.418305
172 1 0.663767 0.48759 0.434568
173 3 0.670321 0.495075 0.458195
174 4 0.669801 0.498865 0.42403
175 1 0.627544 0.505011 0.462199
176 3 0.629438 0.49728 0.485899
177 4 0.604898 0.512078 0.459772
178 1 0.620286 0.469034 0.48034
179 3 0.647005 0.46444 0.498584
180 4 0.609139 0.455746 0.474314
181 1 0.683529 0.464312 0.481761
182 3 0.701649 0.474377 0.501883
183 4 0.699185 0.462491 0.469179
184 1 0.689379 0.501895 0.496313
185 3 0.687904 0.503801 0.521164
186 4 0.683177 0.515933 0.488772
187 1 0.644876 0.494036 0.523612
188 3 0.656492 0.483253 0.545134
189 4 0.619699 0.492023 0.520646
190 1 0.673573 0.458915 0.533268
191 3 0.699554 0.461581 0.552239
192 4 0.678082 0.446098 0.523373
193 1 0.729139 0.478189 0.538091
194 3 0.73561 0.488875 0.560453
195 4 0.743672 0.484346 0.526516
196 1 0.702219 0.508748 0.558265
197 3 0.696135 0.506457 0.58265
198 4 0.686094 0.520012 0.55254
199 1 0.667857 0.48336 0.58044
200 3 0.685005 0.476111 0.601755
201 4 0.648966 0.473884 0.575026
202 1 0.713299 0.456891 0.589692
203 3 0.737303 0.464387 0.608559
204 4 0.722736 0.445167 0.58015
205 1 0.758943 0.484731 0.593841
206 3 0.763183 0.497205 0.615467
207 5 0.741141 0.487949 0.589159
208 1 0.723004 0.510526 0.613942
209 3 0.721546 0.50847 0.638721
210 5 0.731319 0.523711 0.611345
211 1 0.698515 0.48351 0.638877
212 3 0.717104 0.474912 0.658967
213 4 0.679959 0.472728 0.635423
214 1 0.755154 0.466956 0.64566
215 3 0.774062 0.476358 0.665802
216 4 0.771146 0.459932 0.635174
217 1 0.774364 0.504005 0.656675
218 3 0.768681 0.511618 0.680074
219 4 0.775856 0.517475 0.647641
220 1 0.723658 0.506467 0.680313
221 3 0.729693 0.498244 0.703619
222 4 0.698766 0.506499 0.675853
223 1 0.735945 0.470426 0.696628
224 3 0.761859 0.470501 0.715868
225 4 0.734218 0.455906 0.689388
226 1 0.797345 0.480245 0.700881
227 3 0.809011 0.493244 0.721189
228 4 0.814493 0.482493 0.689388
229 1 0.782862 0.51649 0.716055
230 3 0.776409 0.52028 0.740263
231 4 0.771296 0.528782 0.708649
232 1 0.744477 0.500021 0.743043
233 3 0.761977 0.49153 0.763953
234 4 0.720926 0.493865 0.740128
235 1 0.779895 0.467717 0.752316
236 3 0.814794 0.463262 0.763206
237 4 0.780264 0.453915 0.743976
238 1 0.834071 0.488575 0.755521
239 3 0.847849 0.50257 0.774367
240 4 0.848101 0.491487 0.742504
241 1 0.819689 0.52527 0.769803
242 3 0.78997 0.516993 0.784459
243 4 0.807922 0.537209 0.761847
244 1 0.80881 0.526897 0.80847
245 3 0.774967 0.53511 0.819039
246 4 0.826478 0.5292 0.819838
247 1 0.772319 0.559834 0.803937
248 3 0.733799 0.562489 0.798606
249 4 0.780013 0.574118 0.797787
250 1 0.731218 0.537926 0.782758
251 3 0.706427 0.518042 0.784604
252 4 0.735224 0.534393 0.767562
253 1 0.722233 0.508994 0.809777
254 3 0.704348 0.518792 0.830137
255 4 0.740571 0.502677 0.819132
256 1 0.661303 0.514305 0.820138
257 3 0.647206 0.496445 0.804435
258 4 0.654967 0.530324 0.819755
259 1 0.604445 0.497291 0.814963
260 3 0.59184 0.492023 0.791926
261 4 0.585236 0.497794 0.82521
262 1 0.587767 0.52043 0.7845
263 3 0.5965 0.511971 0.761516
264 4 0.584079 0.536523 0.784905
265 1 0.641624 0.513513 0.764918
266 3 0.650357 0.492622 0.751828
267 4 0.664655 0.519402 0.768672
268 1 0.633779 0.473692 0.770373
269 3 0.617369 0.460575 0.751662
270 4 0.63041 0.465372 0.784013
271 1 0.578883 0.476486 0.75076
272 3 0.580475 0.474901 0.72623
273 4 0.557846 0.484538 0.755157
274 1 0.608468 0.497923 0.723232
275 3 0.627946 0.486466 0.704511
276 4 0.617872 0.512913 0.724788
277 1 0.654062 0.469773 0.721293
278 3 0.648161 0.450949 0.704957
279 4 0.669684 0.465468 0.733075
280 1 0.610262 0.440616 0.717424
281 3 0.595612 0.435797 0.694657
282 4 0.593449 0.435648 0.728315
283 1 0.58128 0.463209 0.690363
284 3 0.592326 0.460628 0.666663
285 4 0.571038 0.478124 0.692521
286 1 0.636159 0.466946 0.6713
287 3 0.64682 0.449225 0.654621
288 4 0.657112 0.47412 0.676828
289 1 0.64325 0.4266 0.672409
290 3 0.628197 0.414136 0.652723
291 4 0.645362 0.417177 0.68554
292 1 0.585068 0.422295 0.657359
293 3 0.582286 0.421974 0.632425
294 4 0.562842 0.426418 0.664433
295 1 0.595612 0.449503 0.629044
296 3 0.615291 0.443378 0.608372
297 4 0.597539 0.465779 0.63089
298 1 0.652335 0.433078 0.621462
299 3 0.653676 0.415003 0.604058
300 4 0.672098 0.431804 0.631512
301 1 0.6257 0.396672 0.617323
302 3 0.608519 0.388299 0.596413
303 4 0.614654 0.387774 0.628712
304 1 0.585085 0.412894 0.591445
305 3 0.598009 0.40844 0.568347
306 4 0.569144 0.425807 0.593561
307 1 0.632874 0.427157 0.569944
308 3 0.658168 0.414211 0.555465
309 5 0.617101 0.441925 0.559978
310 1 0.666348 0.393032 0.574414
311 3 0.665594 0.372312 0.56007
312 4 0.677545 0.389412 0.588147
313 1 0.623286 0.363832 0.567787
314 3 0.599953 0.358264 0.548443
315 4 0.615944 0.355105 0.580399
316 1 0.569362 0.379529 0.553691
317 3 0.565155 0.383491 0.529088
318 4 0.55203 0.387303 0.562735
319 1 0.590399 0.407915 0.528798
320 3 0.598595 0.403632 0.505056
321 4 0.601026 0.421974 0.533082
322 1 0.63103 0.38453 0.507898
323 3 0.616967 0.372216 0.48816
324 4 0.650759 0.376735 0.514453
325 1 0.584096 0.357996 0.501893
326 3 0.559606 0.361723 0.482404
327 4 0.572078 0.348831 0.512701
328 1 0.547169 0.388791 0.490121
329 3 0.549331 0.397432 0.466752
330 4 0.53852 0.401041 0.498926
331 1 0.594958 0.40012 0.466514
332 3 0.593919 0.391747 0.443177
333 4 0.61876 0.403354 0.470995
334 1 0.593399 0.363297 0.449773
335 3 0.568926 0.358468 0.430844
336 4 0.598076 0.349013 0.456951
337 1 0.53091 0.367612 0.443747
338 3 0.512773 0.37879 0.424621
339 4 0.512873 0.369475 0.454908
340 1 0.544571 0.399991 0.421395
341 3 0.553689 0.396404 0.397457
342 4 0.552147 0.414661 0.427297
343 1 0.594656 0.383962 0.402487
344 3 0.594321 0.368661 0.382905
345 4 0.617084 0.380482 0.409177
346 1 0.561534 0.350373 0.393121
347 3 0.525009 0.342395 0.387282
348 4 0.563428 0.337095 0.402155
349 1 0.508666 0.370267 0.381328
350 3 0.473365 0.359196 0.385954
351 4 0.504945 0.365256 0.366361
352 1 0.477589 0.362419 0.415183
353 3 0.453066 0.342139 0.417298
354 4 0.45605 0.371563 0.414664
355 1 0.487227 0.32249 0.412724
356 3 0.520903 0.321891 0.426218
357 4 0.494569 0.315541 0.399023
358 1 0.503922 0.303045 0.445718
359 3 0.520835 0.281716 0.437171
360 4 0.487345 0.295004 0.455115
361 1 0.563831 0.290164 0.440656
362 3 0.582688 0.268728 0.447128
363 4 0.5818 0.301525 0.439349
364 1 0.570033 0.270462 0.474594
365 3 0.538872 0.256746 0.465746
366 4 0.56834 0.277615 0.488783
367 1 0.544487 0.233735 0.482165
368 3 0.518522 0.248747 0.494653
369 4 0.556975 0.223167 0.491562
370 1 0.482768 0.230951 0.489291
371 3 0.464883 0.23971 0.509454
372 4 0.468001 0.219055 0.482663
373 1 0.489742 0.223874 0.527771
374 3 0.493714 0.239303 0.547229
375 4 0.501542 0.210746 0.53416
376 1 0.517785 0.259979 0.53332
377 3 0.509186 0.28481 0.534471
378 4 0.541839 0.262678 0.528508
379 1 0.47013 0.283001 0.520262
380 3 0.457156 0.300797 0.536204
381 4 0.454608 0.279746 0.508075
382 1 0.436337 0.283547 0.554199
383 3 0.447383 0.297381 0.573844
384 4 0.423045 0.270741 0.559676
385 1 0.490865 0.288097 0.573761
386 3 0.499229 0.312286 0.580461
387 4 0.511599 0.278354 0.572713
388 1 0.503939 0.322255 0.554002
389 3 0.48897 0.344119 0.562964
390 4 0.50932 0.323175 0.538527
391 1 0.444903 0.336967 0.558576
392 3 0.437812 0.350009 0.579777
393 4 0.423514 0.331174 0.551928
394 1 0.44735 0.327394 0.59688
395 3 0.461883 0.344698 0.612697
396 4 0.449495 0.312436 0.602927
397 1 0.503185 0.346154 0.601081
398 3 0.503839 0.371317 0.605779
399 4 0.525596 0.341903 0.594837
400 1 0.480254 0.378865 0.582743
401 3 0.464967 0.396619 0.598094
402 4 0.471471 0.379197 0.567828
403 1 0.429263 0.380386 0.606122
404 3 0.433571 0.391072 0.628515
405 4 0.408814 0.370321 0.605437
406 1 0.465051 0.37212 0.637518
407 3 0.475343 0.393106 0.650369
408 4 0.479651 0.358874 0.63954
409 1 0.507627 0.401598 0.63256
410 3 0.500201 0.425829 0.637933
411 4 0.527809 0.400634 0.623184
412 1 0.465537 0.428902 0.619761
413 3 0.444919 0.443518 0.635931
414 4 0.452194 0.428634 0.606339
415 1 0.427939 0.420946 0.65067
416 3 0.435717 0.433399 0.671777
417 4 0.414848 0.407187 0.653055
418 1 0.477321 0.422306 0.675272
419 3 0.489322 0.444471 0.685188
420 4 0.497033 0.411995 0.675542
421 1 0.496094 0.458123 0.660585
422 3 0.485048 0.481112 0.668426
423 4 0.502716 0.461089 0.645629
424 1 0.44088 0.474816 0.671994
425 3 0.429649 0.480448 0.69528
426 4 0.419407 0.475126 0.663106
427 1 0.435097 0.453465 0.705558
428 3 0.447484 0.464119 0.726769
429 4 0.434745 0.437393 0.707384
430 1 0.489775 0.469173 0.718368
431 3 0.487663 0.491081 0.731022
432 4 0.512991 0.467406 0.711916
433 1 0.468487 0.506574 0.709998
434 3 0.448037 0.518728 0.727848
435 4 0.462922 0.512528 0.695788
436 1 0.414043 0.499058 0.72901
437 3 0.41349 0.50394 0.753467
438 4 0.396275 0.487965 0.724913
439 1 0.446327 0.48472 0.759866
440 3 0.45905 0.500932 0.777406
441 4 0.460911 0.471304 0.760198
442 1 0.483338 0.517753 0.759597
443 3 0.470029 0.536909 0.774169
444 4 0.499179 0.522604 0.747752
445 1 0.432113 0.541834 0.759348
446 3 0.416658 0.548709 0.781337
447 4 0.414965 0.543098 0.747607
448 1 0.404053 0.521715 0.788649
449 3 0.413742 0.52739 0.812142
450 4 0.394113 0.506682 0.787995
451 1 0.457843 0.520398 0.809476
452 3 0.465721 0.539479 0.825241
453 4 0.479215 0.512474 0.805597
454 1 0.467515 0.560187 0.805254
455 3 0.450132 0.576109 0.821715
456 4 0.472879 0.568218 0.791885
457 1 0.407188 0.569235 0.815004
458 3 0.39941 0.573347 0.839161
459 4 0.386151 0.565038 0.80708
460 1 0.409585 0.54615 0.847282
461 3 0.425073 0.557007 0.867642
462 4 0.410104 0.529821 0.847707
463 1 0.466576 0.561279 0.856638
464 3 0.474957 0.583594 0.867653
465 4 0.488166 0.558677 0.848962
466 1 0.444282 0.599462 0.853194
467 3 0.426498 0.610395 0.873046
468 4 0.439857 0.606808 0.839327
469 1 0.386738 0.596218 0.869893
470 3 0.385011 0.598681 0.89462
471 4 0.366187 0.588969 0.863805
472 1 0.405025 0.572683 0.899765
473 3 0.436974 0.557178 0.89852
474 4 0.391431 0.559202 0.902658
475 1 0.468085 0.577566 0.904245
476 3 0.492021 0.559887 0.914482
477 4 0.477757 0.592481 0.904722
478 1 0.473248 0.561761 0.940174
479 3 0.479517 0.536309 0.941937
480 4 0.464196 0.568453 0.953699
481 1 0.438231 0.529392 0.931773
482 3 0.452697 0.508887 0.920104
483 4 0.412937 0.52921 0.929335
484 1 0.469828 0.523921 0.898147
485 3 0.505465 0.512431 0.895377
486 4 0.468034 0.533268 0.885244
487 1 0.526434 0.528054 0.915613
488 3 0.549314 0.507902 0.921442
489 4 0.533675 0.540421 0.924896
490 1 0.517332 0.494464 0.937166
491 3 0.514416 0.469858 0.931327
492 4 0.503386 0.493522 0.950225
493 1 0.501609 0.474623 0.904079
494 3 0.508649 0.473713 0.879601
495 4 0.47665 0.473638 0.900294
496 1 0.54861 0.48835 0.881178
497 3 0.584549 0.490031 0.892172
498 4 0.548359 0.504379 0.877817
499 1 0.599182 0.464065 0.881074
500 3 0.593583 0.456998 0.857426
501 4 0.598813 0.453079 0.892846
502 1 0.634332 0.444503 0.855217
503 3 0.616715 0.427563 0.840239
504 4 0.659425 0.441622 0.856575
505 1 0.605015 0.409039 0.860859
506 3 0.571022 0.403546 0.848848
507 4 0.606088 0.399627 0.873938
508 1 0.548124 0.426953 0.858225
509 3 0.530842 0.429009 0.835925
510 4 0.538788 0.43856 0.867819
511 1 0.565389 0.443314 0.823769
512 3 0.55855 0.42978 0.80319
513 4 0.584565 0.453915 0.821601
514 1 0.584046 0.406994 0.811198
515 3 0.555969 0.392325 0.799934
516 4 0.603691 0.397957 0.816788
517 1 0.527842 0.391661 0.822151
518 3 0.49762 0.391779 0.805981
519 4 0.518673 0.390483 0.836983
520 1 0.49757 0.420818 0.802942
521 3 0.488669 0.417177 0.778764
522 4 0.497435 0.436879 0.806219
523 1 0.532401 0.413751 0.770674
524 3 0.517734 0.39573 0.755272
525 4 0.557897 0.415699 0.769388
526 1 0.518237 0.3744 0.774709
527 3 0.485333 0.365128 0.76358
528 4 0.524624 0.364924 0.786906
529 1 0.456184 0.383427 0.776638
530 3 0.436471 0.384123 0.755012
531 4 0.444534 0.392068 0.788068
532 1 0.461279 0.405902 0.744059
533 3 0.453502 0.392967 0.722942
534 4 0.475695 0.419394 0.742348
535 1 0.490613 0.376135 0.724021
536 3 0.470281 0.356722 0.714312
537 4 0.514801 0.371467 0.725722
538 1 0.449345 0.348702 0.738552
539 3 0.417647 0.343274 0.72428
540 4 0.445238 0.345201 0.753799
541 1 0.399762 0.37001 0.72541
542 3 0.389939 0.365749 0.701669
543 4 0.391448 0.38454 0.731011
544 1 0.42871 0.376296 0.69083
545 3 0.424302 0.359228 0.672451
546 4 0.44978 0.384969 0.688507
547 1 0.441617 0.336763 0.687044
548 3 0.412485 0.322233 0.677378
549 4 0.458564 0.328037 0.695767
550 1 0.382547 0.327341 0.698059
551 3 0.351504 0.325253 0.682678
552 5 0.404975 0.329367 0.696013
553 1 0.358091 0.351454 0.670273
554 3 0.35147 0.340286 0.648274
555 4 0.360555 0.36774 0.669401
556 1 0.396158 0.335885 0.642382
557 3 0.404673 0.313838 0.631554
558 4 0.419022 0.342213 0.639405
559 1 0.395018 0.296846 0.653408
560 3 0.379597 0.276458 0.642279
561 4 0.399159 0.291481 0.668426
562 1 0.339485 0.286288 0.635993
563 3 0.333183 0.279328 0.612863
564 4 0.316823 0.293441 0.639022
565 1 0.367025 0.295668 0.601589
566 3 0.37301 0.275741 0.586508
567 4 0.37901 0.30993 0.598446
568 1 0.409216 0.264937 0.59827
569 3 0.398773 0.240738 0.594266
570 4 0.432214 0.265066 0.605167
571 1 0.370579 0.238832 0.61611
572 3 0.350179 0.224098 0.600251
573 4 0.361142 0.240042 0.631077
574 1 0.321566 0.245085 0.59214
575 3 0.322958 0.238479 0.568284
576 4 0.303178 0.25635 0.594557
577 1 0.359315 0.254722 0.561989
578 3 0.369707 0.237215 0.545196
579 5 0.348973 0.279626 0.551083
580 1 0.39071 0.219483 0.563503
581 3 0.378072 0.197126 0.555091
582 4 0.408294 0.215361 0.574082
583 1 0.336116 0.199364 0.566293
584 3 0.314057 0.191569 0.547084
585 4 0.321063 0.198764 0.579051
586 1 0.306078 0.219237 0.537511
587 3 0.32227 0.242258 0.532936
588 4 0.2836 0.225769 0.541815
589 1 0.343424 0.233714 0.508967
590 3 0.341212 0.253812 0.494145
591 4 0.358426 0.224195 0.499953
592 1 0.296037 0.252313 0.489851
593 3 0.287757 0.277336 0.489561
594 4 0.273442 0.24576 0.485785
595 1 0.290539 0.280774 0.517876
596 3 0.309581 0.302542 0.522606
597 4 0.282594 0.277679 0.532698
598 1 0.351336 0.292648 0.51409
599 3 0.379262 0.300475 0.498263
600 4 0.369054 0.28541 0.523239
601 1 0.355694 0.292852 0.474843
602 3 0.318013 0.294758 0.467385
603 4 0.363522 0.278803 0.468308
604 1 0.328389 0.31523 0.447066
605 3 0.354973 0.312125 0.428822
606 4 0.328305 0.331731 0.447284
607 1 0.326025 0.294254 0.413399
608 3 0.355694 0.279853 0.404479
609 4 0.330534 0.304694 0.401388
610 1 0.365668 0.267957 0.431249
611 3 0.404724 0.263534 0.428542
612 4 0.360488 0.253255 0.425067
613 1 0.415485 0.291053 0.420711
614 3 0.441466 0.303088 0.435346
615 4 0.416575 0.296203 0.405817
616 1 0.413926 0.325756 0.44132
617 3 0.391532 0.318261 0.460695
618 4 0.399963 0.33868 0.43685
619 1 0.426112 0.321687 0.479614
620 3 0.426062 0.344055 0.49206
621 4 0.449378 0.318839 0.485422
622 1 0.379446 0.344826 0.49457
623 3 0.352375 0.326795 0.499258
624 4 0.368031 0.354891 0.484074
625 1 0.34272 0.336945 0.525635
626 3 0.309833 0.350587 0.520293
627 4 0.345536 0.343541 0.539958
628 1 0.287288 0.327544 0.50879
629 3 0.26263 0.309052 0.516974
630 4 0.287556 0.319653 0.494995
631 1 0.247343 0.324803 0.539492
632 3 0.246438 0.347321 0.551077
633 4 0.257535 0.316333 0.551502
634 1 0.202119 0.352675 0.546399
635 3 0.201767 0.367141 0.566915
636 4 0.178836 0.351197 0.539927
637 1 0.196436 0.344794 0.584797
638 3 0.218915 0.358328 0.600666
639 4 0.18881 0.330778 0.591497
640 1 0.258909 0.348049 0.591487
641 3 0.279007 0.369807 0.594702
642 4 0.277029 0.337545 0.58685
643 1 0.261625 0.383234 0.571873
644 3 0.258322 0.403889 0.586435
645 4 0.25621 0.385536 0.556336
646 1 0.214221 0.399745 0.5927
647 3 0.226474 0.411095 0.613787
648 4 0.189581 0.395751 0.591943
649 1 0.231503 0.385675 0.627996
650 3 0.261423 0.398128 0.639727
651 4 0.227832 0.370374 0.633307
652 1 0.292819 0.391757 0.620632
653 3 0.311459 0.413708 0.624646
654 5 0.269788 0.393176 0.617868
655 1 0.28241 0.429983 0.609544
656 3 0.286634 0.447158 0.627695
657 4 0.268966 0.43477 0.596973
658 1 0.246807 0.441312 0.639976
659 3 0.262547 0.447105 0.661861
660 4 0.221831 0.43856 0.641967
661 1 0.279225 0.420486 0.667244
662 3 0.311308 0.43221 0.677004
663 4 0.27837 0.404274 0.669329
664 1 0.338245 0.428356 0.654455
665 3 0.361343 0.449053 0.651572
666 4 0.350598 0.418601 0.644498
667 1 0.330081 0.465907 0.640505
668 3 0.321114 0.487097 0.653117
669 4 0.329931 0.467064 0.624688
670 1 0.276258 0.486027 0.648159
671 3 0.271481 0.499657 0.668852
672 4 0.253579 0.483564 0.640889
673 1 0.268195 0.47639 0.686111
674 3 0.287539 0.491562 0.702177
675 4 0.259915 0.461903 0.691919
676 1 0.329109 0.484024 0.695985
677 3 0.340809 0.508213 0.699677
678 4 0.348956 0.47503 0.690955
679 1 0.326746 0.518385 0.674805
680 3 0.318348 0.5398 0.68748
681 4 0.322254 0.519627 0.659309
682 1 0.275638 0.531887 0.693879
683 3 0.280784 0.544008 0.715578
684 4 0.251551 0.526105 0.693278
685 1 0.302726 0.521597 0.728086
686 3 0.324315 0.5404 0.738749
687 4 0.309548 0.506382 0.732588
688 1 0.354923 0.542252 0.717746
689 3 0.357639 0.567179 0.723046
690 4 0.370596 0.538322 0.705797
691 1 0.322136 0.575146 0.70701
692 3 0.315733 0.592428 0.725089
693 4 0.305843 0.576174 0.694502
694 1 0.28712 0.575606 0.73989
695 3 0.303983 0.587491 0.759566
696 4 0.268782 0.564749 0.743883
697 1 0.338965 0.568775 0.761702
698 3 0.360388 0.589044 0.769502
699 4 0.35271 0.555112 0.761547
700 1 0.370914 0.598638 0.743634
701 3 0.367461 0.622291 0.753322
702 4 0.377954 0.598959 0.728418
703 1 0.322756 0.624807 0.748623
704 3 0.322522 0.638288 0.769855
705 4 0.299356 0.623801 0.742286
706 1 0.318348 0.615267 0.78673
707 3 0.34262 0.626017 0.803585
708 4 0.310419 0.601122 0.792943
709 1 0.381474 0.618875 0.790215
710 3 0.394465 0.642025 0.798087
711 4 0.398823 0.610309 0.78226
712 1 0.379999 0.656373 0.77503
713 3 0.371618 0.675786 0.790723
714 4 0.374853 0.660099 0.759794
715 1 0.330467 0.6654 0.798347
716 3 0.338681 0.676246 0.820398
717 4 0.307754 0.657872 0.798139
718 1 0.359851 0.652818 0.830873
719 3 0.384944 0.669051 0.84249
720 4 0.364209 0.637153 0.834721
721 1 0.413473 0.672199 0.820885
722 3 0.417446 0.696366 0.8291
723 4 0.42814 0.669329 0.808273
724 1 0.381793 0.706998 0.814631
725 3 0.374568 0.722235 0.834016
726 4 0.36483 0.709975 0.803128
727 1 0.349945 0.702148 0.848485
728 3 0.366187 0.712941 0.868659
729 4 0.333752 0.689909 0.851607
730 1 0.402746 0.69583 0.868918
731 3 0.427336 0.714515 0.876531
732 4 0.416927 0.682253 0.868794
733 1 0.431644 0.726989 0.851317
734 3 0.429632 0.75046 0.861264
735 4 0.437041 0.728328 0.835997
736 1 0.383754 0.752002 0.860994
737 3 0.375105 0.762646 0.882786
738 4 0.360505 0.752527 0.854128
739 1 0.382748 0.738661 0.89796
740 3 0.401036 0.751028 0.916702
741 4 0.380519 0.723242 0.902918
742 1 0.441483 0.752773 0.903592
743 3 0.45796 0.776116 0.90465
744 4 0.462788 0.745096 0.898613
745 1 0.426766 0.788665 0.886997
746 3 0.387324 0.789907 0.8829
747 4 0.432968 0.790228 0.871698
748 1 0.380284 0.810969 0.902793
749 3 0.355007 0.827897 0.893282
750 4 0.380603 0.816494 0.917698
751 1 0.384592 0.839408 0.874726
752 3 0.3597 0.841657 0.855787
753 5 0.389487 0.831686 0.853234
754 1 0.374971 0.81749 0.842293
755 3 0.359549 0.796182 0.852261
756 4 0.394465 0.811419 0.834016
757 1 0.319236 0.798205 0.838072
758 3 0.312364 0.77557 0.827171
759 4 0.297462 0.806557 0.840208
760 1 0.320091 0.785538 0.801095
761 3 0.356851 0.776565 0.807101
762 4 0.317242 0.794993 0.788348
763 1 0.355895 0.755921 0.786543
764 3 0.353297 0.75938 0.762169
765 4 0.346508 0.74092 0.788493
766 1 0.398019 0.758031 0.757419
767 3 0.391197 0.732686 0.75522
768 4 0.422693 0.760301 0.7608
769 1 0.393191 0.731894 0.727267
770 3 0.432951 0.727386 0.726883
771 4 0.390493 0.737376 0.712445
772 1 0.428342 0.699107 0.733843
773 3 0.457089 0.689813 0.719343
774 5 0.409987 0.680977 0.731802
775 1 0.428241 0.682628 0.698256
776 3 0.42333 0.7043 0.684939
777 4 0.408998 0.673473 0.692697
778 1 0.463576 0.70112 0.671414
779 3 0.48944 0.681814 0.666891
780 4 0.471957 0.715115 0.677927
781 1 0.510326 0.696259 0.645276
782 3 0.528982 0.718509 0.639675
783 4 0.50347 0.694107 0.630174
784 1 0.563881 0.713541 0.657422
785 3 0.589007 0.725769 0.642393
786 4 0.576687 0.709215 0.670376
787 1 0.596601 0.702855 0.625559
788 3 0.598964 0.719944 0.606899
789 4 0.600523 0.687511 0.62058
790 1 0.554058 0.720394 0.601973
791 3 0.55555 0.745514 0.596849
792 4 0.530038 0.715297 0.599504
793 1 0.555516 0.75378 0.624034
794 3 0.582386 0.772229 0.618257
795 4 0.549264 0.755343 0.639198
796 1 0.618559 0.754968 0.620435
797 3 0.633645 0.767657 0.600863
798 4 0.635187 0.743725 0.625745
799 1 0.613715 0.750493 0.581426
800 3 0.608485 0.770698 0.566687
801 4 0.605719 0.737237 0.573626
802 1 0.57015 0.779831 0.579196
803 3 0.582185 0.804287 0.576302
804 4 0.546599 0.779478 0.585481
805 1 0.607027 0.805101 0.599888
806 3 0.634684 0.818935 0.587919
807 4 0.613715 0.803516 0.615239
808 1 0.655771 0.796117 0.576167
809 3 0.6608 0.809705 0.555433
810 4 0.667253 0.781502 0.574311
811 1 0.618911 0.80403 0.545269
812 3 0.617352 0.828497 0.537438
813 4 0.598143 0.795721 0.540684
814 1 0.600439 0.838659 0.561854
815 3 0.622113 0.860116 0.558835
816 4 0.58661 0.840286 0.575016
817 1 0.660314 0.849088 0.569415
818 3 0.683027 0.861391 0.552581
819 4 0.676422 0.841475 0.579351
820 1 0.67726 0.841014 0.53248
821 3 0.674009 0.858885 0.514599
822 4 0.678484 0.826131 0.525821
823 1 0.628415 0.860941 0.516538
824 3 0.630108 0.886425 0.513997
825 4 0.604311 0.855105 0.515625
826 1 0.623605 0.891672 0.542448
827 3 0.642244 0.881767 0.562103
828 4 0.599735 0.894852 0.547011
829 1 0.66308 0.907401 0.568844
830 3 0.670204 0.929769 0.580223
831 4 0.687653 0.908536 0.564125
832 1 0.62523 0.935198 0.584766
833 3 0.638808 0.92555 0.606516
834 4 0.600137 0.936558 0.581675
835 1 0.624694 0.948914 0.622053
836 3 0.620001 0.93417 0.641874
837 4 0.62052 0.964537 0.625974
838 1 0.577911 0.925411 0.637518
839 3 0.585772 0.902508 0.647153
840 4 0.553321 0.926011 0.63257
841 1 0.607597 0.892025 0.624169
842 3 0.633142 0.88015 0.639468
843 4 0.613916 0.88862 0.609254
844 1 0.659325 0.903557 0.64427
845 3 0.663398 0.896576 0.667887
846 4 0.673472 0.916888 0.641615
847 1 0.623755 0.908814 0.676683
848 3 0.619665 0.88908 0.69223
849 4 0.604412 0.919276 0.67827
850 1 0.598897 0.871584 0.673571
851 3 0.618475 0.851947 0.683839
852 4 0.582889 0.866348 0.662214
853 1 0.655905 0.85502 0.667752
854 3 0.678467 0.848253 0.687314
855 4 0.671159 0.857258 0.655129
856 1 0.67892 0.874946 0.699014
857 3 0.676791 0.864057 0.7215
858 4 0.680294 0.891265 0.700673
859 1 0.631148 0.859924 0.720899
860 3 0.637299 0.83717 0.731924
861 4 0.606055 0.862847 0.718721
862 1 0.644524 0.822576 0.70783
863 3 0.671846 0.808624 0.719944
864 4 0.641741 0.816869 0.69306
865 1 0.705756 0.82748 0.715879
866 3 0.719719 0.822672 0.738656
867 4 0.721999 0.837898 0.708805
868 1 0.690167 0.8405 0.751859
869 3 0.687217 0.823379 0.770259
870 4 0.676154 0.853981 0.755168
871 1 0.654313 0.807403 0.757284
872 3 0.671058 0.786384 0.766992
873 4 0.634215 0.802863 0.748976
874 1 0.702923 0.783632 0.746922
875 3 0.732475 0.776159 0.761796
876 4 0.712226 0.782326 0.732152
877 1 0.744611 0.803409 0.769637
878 3 0.752959 0.802542 0.793741
879 4 0.754652 0.818057 0.765996
880 1 0.709712 0.805015 0.802942
881 3 0.719032 0.789275 0.821476
882 4 0.685742 0.811076 0.804414
883 1 0.703242 0.764605 0.807184
884 3 0.70346 0.762142 0.832097
885 4 0.726776 0.758256 0.807277
886 1 0.658252 0.763117 0.835365
887 3 0.667455 0.738286 0.83802
888 4 0.63341 0.764819 0.831371
889 1 0.66137 0.738896 0.866564
890 3 0.622465 0.74244 0.872683
891 4 0.680194 0.742879 0.876739
892 1 0.623353 0.721411 0.892546
893 3 0.607949 0.705028 0.875909
894 5 0.641859 0.708743 0.883685
895 1 0.564719 0.708829 0.884798
896 3 0.550605 0.70612 0.861782
897 4 0.545342 0.71005 0.89519
898 1 0.556036 0.733907 0.854542
899 3 0.564719 0.72609 0.831475
900 4 0.556606 0.75046 0.854791
901 1 0.60763 0.719184 0.837501
902 3 0.602987 0.699075 0.822348
903 4 0.631768 0.719955 0.843227
904 1 0.585454 0.681375 0.84248
905 3 0.561249 0.671856 0.824941
906 4 0.581917 0.673805 0.856212
907 1 0.528898 0.69249 0.82798
908 3 0.524272 0.690648 0.80318
909 4 0.51222 0.702962 0.834763
910 1 0.557528 0.709354 0.796791
911 3 0.565054 0.694695 0.77696
912 4 0.572949 0.722407 0.796988
913 1 0.590985 0.67555 0.790972
914 3 0.574793 0.656919 0.777208
915 4 0.60877 0.66919 0.800587
916 1 0.537464 0.653889 0.79342