LAMMPS protain data file

        2694  atoms
        3586  bonds
           0  angles
           0  dihedrals
           0  impropers

           5  atom types
           5  bond types
           0  angle types
           0  dihedral types
           0  improper types

-200.0	200.0	xlo xhi
-200.0	200.0	ylo yhi
-200.0	200.0	zlo zhi

Masses

           1	27.0
           2	14.0
           3	28.0
           4	60.0
           5	60.0

Atoms

           1	1	1	1	0.0	-8.793	27.494001	13.69
           2	1	1	3	0.0	-9.242	25.161	13.639
           3	1	1	4	0.0	-7.383	27.695	14.243
           4	1	2	1	0.0	-10.801	25.143	15.869001
           5	1	2	3	0.0	-12.258	23.616	14.717
           6	1	2	4	0.0	-11.256	25.406	17.298
           7	1	3	1	0.0	-13.769	25.571001	13.54
           8	1	3	3	0.0	-13.948	24.201	11.589
           9	1	3	4	0.0	-14.561	26.858	13.324
          10	1	4	1	0.0	-11.516999	24.914	10.562
          11	1	4	3	0.0	-11.206	22.628002	9.878
          12	1	4	4	0.0	-10.362	25.775	10.079
          13	1	5	1	0.0	-10.195	21.827	12.267
          14	1	5	3	0.0	-11.377	19.77	11.906001
          15	1	5	4	0.0	-9.413	21.749	13.602
          16	1	6	1	0.0	-13.725001	20.604	12.949001
          17	1	6	3	0.0	-14.9	19.417	11.264
          18	1	6	4	0.0	-14.759001	21.239	13.869001
          19	1	7	1	0.0	-14.601	21.321	9.334
          20	1	7	3	0.0	-14.317999	19.53	7.7509995
          21	1	7	4	0.0	-14.571	22.689999	8.663
          22	1	8	1	0.0	-11.61	19.367	8.097
          23	1	8	3	0.0	-11.918	16.977	7.871
          24	1	8	4	0.0	-10.129	19.75	8.276
          25	1	9	1	0.0	-12.487	16.586	10.533
          26	1	9	3	0.0	-13.878	14.858	9.644
          27	1	9	4	0.0	-12.558	16.727	12.045
          28	1	10	1	0.0	-16.085	16.432	9.335
          29	1	10	3	0.0	-16.619	15.18	7.365
          30	1	10	4	0.0	-17.156	17.508	9.567
          31	1	11	1	0.0	-14.968	16.597	5.728
          32	1	11	3	0.0	-14.576	14.516999	4.601
          33	1	11	4	0.0	-14.219	17.732	5.069
          34	1	12	1	0.0	-12.573	13.714	6.208
          35	1	12	3	0.0	-13.332999	11.456	6.0590005
          36	1	12	4	0.0	-11.274999	13.706	7.028
          37	1	13	1	0.0	-15.261	11.697999	7.9609995
          38	1	13	3	0.0	-16.527	10.26	6.517
          39	1	13	4	0.0	-15.994	12.062	9.281
          40	1	14	1	0.0	-17.653	12.262001	5.079
          41	1	14	3	0.0	-17.486	11.021	3.051
          42	1	14	4	0.0	-18.404	13.535	4.731
          43	1	15	1	0.0	-14.851001	11.633001	2.593
          44	1	15	3	0.0	-14.710001	9.406	1.707
          45	1	15	4	0.0	-13.556	12.413	2.485
          46	1	16	1	0.0	-14.142999	8.238	4.124
          47	1	16	3	0.0	-15.603001	6.431	3.564
          48	1	16	4	0.0	-13.45	7.976	5.464
          49	1	17	1	0.0	-17.885	7.752	4.288
          50	1	17	3	0.0	-19.285	6.8350005	2.621
          51	1	17	5	0.0	-16.545	6.897122	4.7600355
          52	1	18	1	0.0	-18.008	8.041	0.513
          53	1	18	3	0.0	-17.671	6.406	-1.181
          54	1	18	4	0.0	-17.528	9.237	-0.33
          55	1	19	1	0.0	-15.856	4.919	0.28
          56	1	19	3	0.0	-16.351	2.602	0.554
          57	1	19	4	0.0	-14.349	5.11	0.309
          58	1	20	1	0.0	-16.663	2.742	3.275
          59	1	20	3	0.0	-18.947	3.459	3.007
          60	1	20	4	0.0	-16.026	2.876	4.682
          61	1	21	1	0.0	-20.014	1.224	4.1
          62	1	21	3	0.0	-19.874	2.065	6.328
          63	1	21	4	0.0	-20.276	-0.261	4.306
          64	1	22	1	0.0	-22.248	3.452	6.172
          65	1	22	3	0.0	-24.036	2.152	7.1
          66	1	22	4	0.0	-23.283	4.409	5.621
          67	1	23	1	0.0	-22.549997	1.398	9.313
          68	1	23	3	0.0	-20.691	2.357	10.505
          69	1	23	4	0.0	-22.387001	-0.081	9.004
          70	1	24	1	0.0	-21.662	1.709	12.967
          71	1	24	3	0.0	-19.554	1.224	13.968
          72	1	24	4	0.0	-22.647	1.563	14.124
          73	1	25	1	0.0	-19.266	-1.226	12.814999
          74	1	25	3	0.0	-16.957	-0.75	12.366
          75	1	25	4	0.0	-19.694	-2.694	12.563001
          76	1	26	1	0.0	-17.348	-0.263	9.689
          77	1	26	3	0.0	-15.693	1.435	9.454
          78	1	26	4	0.0	-17.831	-0.555	8.276
          79	1	27	1	0.0	-17.336	3.51	10.246
          80	1	27	3	0.0	-15.821	4.744	11.630999
          81	1	27	4	0.0	-18.578	4.364	9.976
          82	1	28	1	0.0	-16.589	3.537	13.976
          83	1	28	3	0.0	-14.507	4.354	14.781
          84	1	28	4	0.0	-17.333	2.726	15.041001
          85	1	29	1	0.0	-12.955	2.337	14.02
          86	1	29	3	0.0	-11.228	3.951	13.542
          87	1	29	4	0.0	-12.528	0.928	13.673001
          88	1	30	1	0.0	-12.113	4.547	11.027
          89	1	30	3	0.0	-11.415	6.774	11.556
          90	1	30	4	0.0	-12.655001	4.371	9.599
          91	1	31	1	0.0	-13.791	7.517	12.653
          92	1	31	3	0.0	-12.641	8.824	14.302001
          93	1	31	4	0.0	-15.289999	7.681	12.901
          94	1	32	1	0.0	-11.979	6.7	15.875
          95	1	32	3	0.0	-9.855	7.7430005	16.339
          96	1	32	4	0.0	-12.107	5.412	16.684
          97	1	33	1	0.0	-8.639	6.77	14.105
          98	1	33	3	0.0	-7.582	8.953	14.065
          99	1	33	4	0.0	-8.162	5.805	13.009
         100	1	34	1	0.0	-9.395	10.064	12.388
         101	1	34	3	0.0	-8.997	12.098	13.630001
         102	1	34	4	0.0	-10.437	10.264	11.259001
         103	1	35	1	0.0	-10.679	11.48	15.645001
         104	1	35	3	0.0	-9.108	12.58	17.055
         105	1	35	4	0.0	-11.888	10.976	16.436
         106	1	36	1	0.0	-7.556	10.38	17.477
         107	1	36	3	0.0	-5.422	11.43	17.494
         108	1	36	4	0.0	-7.181	8.952	17.842
         109	1	37	1	0.0	-5.3889995	12.010999	14.842001
         110	1	37	3	0.0	-4.654	14.185999	15.581001
         111	1	37	4	0.0	-5.37	11.726	13.332
         112	1	38	1	0.0	-7.06	15.405	15.073
         113	1	38	3	0.0	-7.925	16.908	16.656
         114	1	38	4	0.0	-8.108	15.821	14.056999
         115	1	39	1	0.0	-7.688	15.192	18.803
         116	1	39	3	0.0	-6.166	16.034	20.448
         117	1	39	4	0.0	-8.788	14.279	19.301
         118	1	40	1	0.0	-4.606	13.814001	20.495
         119	1	40	3	0.0	-3.165	14.785	18.843
         120	1	40	4	0.0	-4.181	12.354999	20.542
         121	1	41	1	0.0	-1.613	16.125	20.723
         122	1	41	3	0.0	0.734	15.872	20.984
         123	1	41	4	0.0	-1.863	17.577	21.166
         124	1	42	1	0.0	0.542	14.218	23.184998
         125	1	42	3	0.0	-0.936	12.86	24.493
         126	1	42	4	0.0	1.078	15.126	24.305
         127	1	43	1	0.0	0.319	10.495	23.854
         128	1	43	3	0.0	-2.023	10.246	23.497002
         129	1	43	5	0.0	0.736	8.885726	23.234196
         130	1	44	1	0.0	-1.756	8.859	21.179
         131	1	44	3	0.0	-2.074	6.966	22.611
         132	1	44	5	0.0	-0.667	8.497629	18.636147
         133	1	45	1	0.0	-4.765	6.905	22.304
         134	1	45	3	0.0	-4.587	4.513	22.471
         135	1	45	4	0.0	-6.219	7.364	22.189
         136	1	46	1	0.0	-4.425	4.121	19.744
         137	1	46	3	0.0	-2.308	4.68	18.801
         138	1	46	4	0.0	-5.275	4.1	18.477
         139	1	47	1	0.0	-1.212	2.199	19.391
         140	1	47	3	0.0	-2.27	0.331	18.304
         141	1	47	4	0.0	-0.417	1.932	20.657
         142	1	48	1	0.0	0.05	-0.455	17.027
         143	1	48	3	0.0	2.0	-1.043	18.303
         144	1	48	4	0.0	0.347	0.116	15.635
         145	1	49	1	0.0	2.296	-3.514	17.293
         146	1	49	3	0.0	3.83	-2.497	15.776
         147	1	49	4	0.0	1.92	-4.813	16.538
         148	1	50	1	0.0	5.978	-2.699	17.555
         149	1	50	3	0.0	6.5450006	-4.487	19.052
         150	1	50	4	0.0	6.226	-1.325	18.151
         151	1	51	1	0.0	9.174	-4.507	18.297
         152	1	51	3	0.0	8.385	-6.293	16.901
         153	1	51	5	0.0	8.162	-4.1231747	17.94043
         154	1	52	1	0.0	9.643	-8.258	18.325
         155	1	52	3	0.0	7.928	-8.763	19.917
         156	1	52	4	0.0	10.756	-8.988	19.05
         157	1	53	1	0.0	6.214	-9.773	18.002
         158	1	53	3	0.0	6.153	-11.02	15.964
         159	1	53	4	0.0	5.159	-8.714	17.633
         160	1	54	1	0.0	5.521	-13.384	17.193
         161	1	54	3	0.0	4.427	-13.841	15.127
         162	1	54	4	0.0	5.454	-14.532	18.193
         163	1	55	1	0.0	1.97	-13.026001	15.988
         164	1	55	3	0.0	1.604	-12.448	13.706
         165	1	55	4	0.0	0.73	-12.866999	16.885
         166	1	56	1	0.0	2.491	-9.946	13.774999
         167	1	56	3	0.0	3.462	-10.245	11.619
         168	1	56	4	0.0	2.774	-8.547	14.325
         169	1	57	1	0.0	5.738	-11.441	12.522
         170	1	57	3	0.0	5.581	-12.737999	10.518
         171	1	57	4	0.0	6.962	-11.804999	13.351001
         172	1	58	1	0.0	3.907	-14.608	11.584
         173	1	58	3	0.0	2.914	-14.664	9.403
         174	1	58	4	0.0	3.2	-15.553999	12.527
         175	1	59	1	0.0	1.271	-12.512	9.847
         176	1	59	3	0.0	1.635	-12.01	7.528
         177	1	59	4	0.0	0.337	-11.5	10.495
         178	1	60	1	0.0	3.981	-10.636	7.959
         179	1	60	3	0.0	4.633	-11.588	5.8429995
         180	1	60	4	0.0	5.059	-9.737	8.578
         181	1	61	1	0.0	5.541	-13.938	6.891
         182	1	61	3	0.0	4.711	-14.871	4.851
         183	1	61	4	0.0	6.186	-14.982	7.8229995
         184	1	62	1	0.0	2.142	-15.155001	5.6909995
         185	1	62	3	0.0	1.579	-14.634	3.432
         186	1	62	4	0.0	0.899	-15.404	6.5910006
         187	1	63	1	0.0	1.68	-11.918999	3.741
         188	1	63	3	0.0	2.46	-11.921999	1.471
         189	1	63	4	0.0	1.534	-10.508	4.347
         190	1	64	1	0.0	5.096	-12.312	2.139
         191	1	64	3	0.0	5.133	-13.577	0.093
         192	1	64	4	0.0	6.434	-12.297	2.864
         193	1	65	1	0.0	4.308	-15.918	1.235
         194	1	65	3	0.0	3.262	-16.245	-0.895
         195	1	65	4	0.0	4.081	-17.072	2.213
         196	1	66	1	0.0	0.955	-14.957	-0.272
         197	1	66	3	0.0	0.861	-14.208	-2.533
         198	1	66	4	0.0	-0.269	-14.395	0.486
         199	1	67	1	0.0	2.504	-12.072	-2.162
         200	1	67	3	0.0	3.166	-12.604	-4.417
         201	1	67	4	0.0	3.169	-10.841	-1.552
         202	1	68	1	0.0	5.394	-14.003	-3.675
         203	1	68	3	0.0	4.88	-15.262999	-5.654
         204	1	68	4	0.0	6.6449995	-14.481	-2.912
         205	1	69	1	0.0	3.365	-17.12	-4.402
         206	1	69	3	0.0	2.182	-17.231	-6.478
         207	1	69	5	0.0	4.026	-17.340475	-4.155523
         208	1	70	1	0.0	0.456	-15.237001	-5.863
         209	1	70	3	0.0	0.48	-14.821	-8.203
         210	1	70	5	0.0	1.507	-14.252917	-5.540886
         211	1	71	1	0.0	2.522	-13.06	-8.137
         212	1	71	3	0.0	3.281	-13.856	-10.261
         213	1	71	4	0.0	3.378	-11.872	-7.722
         214	1	72	1	0.0	4.6	-16.018	-9.277
         215	1	72	3	0.0	3.782	-17.141	-11.232
         216	1	72	4	0.0	5.525	-16.896	-8.417
         217	1	73	1	0.0	1.388	-17.84	-10.175
         218	1	73	3	0.0	0.403	-17.489	-12.325
         219	1	73	4	0.0	0.294	-18.306	-9.215
         220	1	74	1	0.0	0.278	-14.776	-12.138
         221	1	74	3	0.0	0.903	-14.817001	-14.45
         222	1	74	4	0.0	0.026	-13.365	-11.589
         223	1	75	1	0.0	3.603	-14.782	-13.984
         224	1	75	3	0.0	3.703	-16.145	-15.972
         225	1	75	4	0.0	4.983	-14.515	-13.374
         226	1	76	1	0.0	3.199	-18.505	-14.702
         227	1	76	3	0.0	2.029	-19.085	-16.71
         228	1	76	4	0.0	3.114	-19.615	-13.679
         229	1	77	1	0.0	-0.372	-18.06	-15.928
         230	1	77	3	0.0	-0.899	-17.521	-18.18
         231	1	77	4	0.0	-1.558	-17.631	-15.06
         232	1	78	1	0.0	0.536	-15.234	-18.248
         233	1	78	3	0.0	1.365	-15.854999	-20.412
         234	1	78	4	0.0	0.877	-13.789999	-17.846
         235	1	79	1	0.0	3.749	-16.791	-19.491
         236	1	79	3	0.0	3.941	-18.361	-21.27
         237	1	79	4	0.0	5.029	-16.939	-18.674
         238	1	80	1	0.0	2.353	-20.261	-20.138
         239	1	80	3	0.0	0.978	-21.12	-21.868002
         240	1	80	4	0.0	2.411	-21.316	-19.039
         241	1	81	1	0.0	-1.287	-19.794	-21.133
         242	1	81	3	0.0	-0.735	-17.914	-22.515
         243	1	81	4	0.0	-2.418	-19.317	-20.221
         244	1	82	1	0.0	-2.062	-18.887	-24.721
         245	1	82	3	0.0	-3.295	-17.061	-25.631002
         246	1	82	4	0.0	-2.168	-19.902	-25.868002
         247	1	83	1	0.0	-5.383	-17.24	-23.821
         248	1	83	3	0.0	-5.923	-15.003	-23.181997
         249	1	83	4	0.0	-6.536	-17.93	-23.142
         250	1	84	1	0.0	-3.585	-14.608999	-21.755001
         251	1	84	3	0.0	-1.895	-12.933	-21.828
         252	1	84	4	0.0	-3.135	-14.972	-20.347
         253	1	85	1	0.0	-1.198	-13.384	-24.472
         254	1	85	3	0.0	-2.428	-12.36	-26.282
         255	1	85	4	0.0	-0.521	-14.295	-25.478998
         256	1	86	1	0.0	-2.318	-9.835	-25.178
         257	1	86	3	0.0	-0.619	-8.816	-23.846
         258	1	86	4	0.0	-3.827	-9.697	-24.943
         259	1	87	1	0.0	-1.18	-6.282	-24.712
         260	1	87	3	0.0	-1.088	-4.721	-22.915
         261	1	87	4	0.0	-1.33	-5.214	-25.783
         262	1	88	1	0.0	-3.096	-5.914	-21.431
         263	1	88	3	0.0	-2.17	-6.278	-19.252
         264	1	88	4	0.0	-4.618	-5.868	-21.436
         265	1	89	1	0.0	-2.025	-8.992	-19.523
         266	1	89	3	0.0	0.005	-9.245	-18.323
         267	1	89	4	0.0	-2.365	-10.454	-19.851
         268	1	90	1	0.0	1.582	-8.002	-20.166
         269	1	90	3	0.0	2.801	-7.011	-18.372
         270	1	90	4	0.0	2.205	-7.595	-21.511
         271	1	91	1	0.0	1.03	-4.962	-17.983
         272	1	91	3	0.0	1.373	-5.227	-15.630001
         273	1	91	4	0.0	0.099	-3.792	-18.223
         274	1	92	1	0.0	-0.452	-7.246	-15.337
         275	1	92	3	0.0	0.958	-8.302	-13.734999
         276	1	92	4	0.0	-1.734	-8.057	-15.457
         277	1	93	1	0.0	2.574	-9.467	-15.614
         278	1	93	3	0.0	4.351	-8.983	-14.085
         279	1	93	4	0.0	3.039	-10.178	-16.907
         280	1	94	1	0.0	4.891	-6.511	-15.102
         281	1	94	3	0.0	5.349	-5.712	-12.896
         282	1	94	4	0.0	5.141	-5.368	-16.084
         283	1	95	1	0.0	2.714	-5.406	-12.217
         284	1	95	3	0.0	3.351	-6.218	-10.044
         285	1	95	4	0.0	1.219	-5.098	-12.284
         286	1	96	1	0.0	3.12	-8.854	-10.688
         287	1	96	3	0.0	5.001	-9.384	-9.311
         288	1	96	4	0.0	2.592	-10.149	-11.257
         289	1	97	1	0.0	6.8610005	-8.497	-11.148
         290	1	97	3	0.0	7.9869995	-7.698	-9.178
         291	1	97	4	0.0	7.592	-8.234	-12.469
         292	1	98	1	0.0	6.806	-5.231	-9.237
         293	1	98	3	0.0	7.006	-5.394	-6.847
         294	1	98	4	0.0	6.1389995	-3.932	-9.677
         295	1	99	1	0.0	4.657	-6.721	-6.484
         296	1	99	3	0.0	5.7170005	-7.908	-4.677
         297	1	99	4	0.0	3.211	-7.1710005	-6.6
         298	1	100	1	0.0	6.9149995	-9.742	-6.264
         299	1	100	3	0.0	8.78	-9.615	-4.746
         300	1	100	4	0.0	7.182	-10.754	-7.3429995
         301	1	101	1	0.0	9.932	-7.445	-5.933
         302	1	101	3	0.0	10.604	-6.608	-3.792
         303	1	101	4	0.0	10.453	-6.482	-6.98
         304	1	102	1	0.0	8.14	-5.669	-3.097
         305	1	102	3	0.0	8.743	-6.604	-0.966
         306	1	102	4	0.0	6.778	-4.943	-3.138
         307	1	103	1	0.0	7.508	-8.989	-1.405
         308	1	103	3	0.0	9.009	-10.331	-0.146
         309	1	103	5	0.0	7.551	-9.03728	-0.5588681
         310	1	104	1	0.0	11.107	-10.116	-1.927
         311	1	104	3	0.0	13.04	-9.654	-0.649
         312	1	104	4	0.0	11.605999	-10.641	-3.266
         313	1	105	1	0.0	13.135	-6.976	-1.269
         314	1	105	3	0.0	13.567	-5.582	0.611
         315	1	105	4	0.0	13.672	-6.254	-2.499
         316	1	106	1	0.0	11.108	-4.362	0.587
         317	1	106	3	0.0	10.814001	-4.386	2.97
         318	1	106	4	0.0	10.164	-3.417	-0.146
         319	1	107	1	0.0	8.907	-6.347	2.974
         320	1	107	3	0.0	9.489	-6.903	5.2
         321	1	107	4	0.0	7.716	-7.2309995	2.608
         322	1	108	1	0.0	11.710001	-8.332	4.692
         323	1	108	3	0.0	12.639	-7.382	6.662
         324	1	108	4	0.0	12.660999	-9.245	3.945
         325	1	109	1	0.0	13.527	-5.099	5.483
         326	1	109	3	0.0	12.935	-3.869	7.446
         327	1	109	4	0.0	14.200999	-4.154	4.516
         328	1	110	1	0.0	10.269	-3.717	6.83
         329	1	110	3	0.0	9.734	-4.119	9.138
         330	1	110	4	0.0	8.983	-3.482	6.048
         331	1	111	1	0.0	9.992	-6.844	8.95
         332	1	111	3	0.0	10.979	-6.785	11.124
         333	1	111	4	0.0	9.912	-8.272	8.433
         334	1	112	1	0.0	13.484	-6.117	10.239
         335	1	112	3	0.0	13.7	-4.685	12.157999
         336	1	112	4	0.0	14.771	-6.028	9.422
         337	1	113	1	0.0	12.366999	-2.597	11.059
         338	1	113	3	0.0	11.128	-1.787	12.932
         339	1	113	4	0.0	12.009	-1.524	10.065
         340	1	114	1	0.0	9.522	-4.018	13.157999
         341	1	114	3	0.0	9.797	-4.691	15.435
         342	1	114	4	0.0	8.215	-4.557	12.531
         343	1	115	1	0.0	11.292	-6.926	14.844999
         344	1	115	3	0.0	12.653	-6.96	16.779
         345	1	115	4	0.0	11.804999	-8.174	14.157999
         346	1	116	1	0.0	14.023001	-4.635	16.171
         347	1	116	3	0.0	14.553001	-2.358	16.674
         348	1	116	4	0.0	15.343	-4.643	15.401
         349	1	117	1	0.0	11.928	-1.709	17.421
         350	1	117	3	0.0	12.664	0.532	17.152
         351	1	117	4	0.0	12.396999	-1.535	18.878
         352	1	118	1	0.0	12.538999	0.372	14.332
         353	1	118	3	0.0	14.301	1.957	14.06
         354	1	118	4	0.0	11.582	1.56	14.42
         355	1	119	1	0.0	16.288	0.285	14.98
         356	1	119	3	0.0	16.855	-1.545	13.538001
         357	1	119	4	0.0	16.903	-0.259	16.259
         358	1	120	1	0.0	18.181	0.061	11.704
         359	1	120	3	0.0	20.484	0.149	12.283
         360	1	120	4	0.0	18.319	1.229	10.729
         361	1	121	1	0.0	20.901	-2.549	12.259001
         362	1	121	3	0.0	23.03	-2.955	11.265001
         363	1	121	4	0.0	20.477	-3.94	12.705
         364	1	122	1	0.0	22.149	-2.44	8.696
         365	1	122	3	0.0	22.813997	-0.218	9.323
         366	1	122	4	0.0	21.249	-2.592	7.469
         367	1	123	1	0.0	24.723	0.079	7.443
         368	1	123	3	0.0	22.742998	1.045	6.437
         369	1	123	4	0.0	25.755001	-0.308	6.3750005
         370	1	124	1	0.0	23.603	3.653	6.8949995
         371	1	124	3	0.0	22.246	4.507	5.106
         372	1	124	4	0.0	24.332	4.874	7.464
         373	1	125	1	0.0	23.909	3.697	3.106
         374	1	125	3	0.0	22.389	3.053	1.404
         375	1	125	4	0.0	25.217	3.498	2.321
         376	1	126	1	0.0	21.322	0.938	2.753
         377	1	126	3	0.0	18.96	0.955	2.498
         378	1	126	4	0.0	21.462	-0.467	3.341
         379	1	127	1	0.0	18.537	3.023	4.228
         380	1	127	3	0.0	16.788	3.507	2.658
         381	1	127	4	0.0	18.612	3.911	5.474
         382	1	128	1	0.0	18.067	5.283	1.169
         383	1	128	3	0.0	17.063	4.542	-0.841
         384	1	128	4	0.0	19.039	6.4149995	0.836
         385	1	129	1	0.0	18.503	2.224	-1.03
         386	1	129	3	0.0	16.4	1.29	-1.748
         387	1	129	4	0.0	19.671	1.238	-1.037
         388	1	130	1	0.0	15.593001	0.585	0.755
         389	1	130	3	0.0	13.398	1.094	-0.082
         390	1	130	4	0.0	15.575001	0.153	2.224
         391	1	131	1	0.0	13.451	3.719	0.592
         392	1	131	3	0.0	12.128	4.063	-1.384
         393	1	131	4	0.0	13.74	5.032	1.342
         394	1	132	1	0.0	14.266	4.137	-3.072
         395	1	132	3	0.0	12.849	3.091	-4.689
         396	1	132	4	0.0	15.645001	4.399	-3.672
         397	1	133	1	0.0	13.249	0.536	-3.784
         398	1	133	3	0.0	10.963	0.1	-4.262
         399	1	133	4	0.0	13.928	-0.717	-3.26
         400	1	134	1	0.0	10.024	1.039	-1.903
         401	1	134	3	0.0	8.156	1.725	-3.26
         402	1	134	4	0.0	9.878	1.417	-0.427
         403	1	135	1	0.0	9.174	4.167	-3.849
         404	1	135	3	0.0	8.204	3.932	-6.0069995
         405	1	135	4	0.0	9.838	5.544	-3.669
         406	1	136	1	0.0	10.316	2.56	-7.0929995
         407	1	136	3	0.0	8.514	1.646	-8.385
         408	1	136	4	0.0	11.709	1.962	-7.36
         409	1	137	1	0.0	8.153	-0.517	-6.764
         410	1	137	3	0.0	5.814	-0.495	-7.259
         411	1	137	4	0.0	8.481	-1.73	-5.919
         412	1	138	1	0.0	5.171	1.382	-5.402
         413	1	138	3	0.0	3.575	2.285	-6.952
         414	1	138	4	0.0	5.097	2.123	-4.082
         415	1	139	1	0.0	5.377	3.895	-8.187
         416	1	139	3	0.0	4.276	3.377	-10.249
         417	1	139	4	0.0	6.489	4.922	-8.41
         418	1	140	1	0.0	5.767	1.161	-10.8
         419	1	140	3	0.0	3.83	0.281	-11.863
         420	1	140	4	0.0	6.904	0.139	-10.875
         421	1	141	1	0.0	2.633	-0.584	-9.576
         422	1	141	3	0.0	0.695	-0.06	-10.894001
         423	1	141	4	0.0	2.37	-1.063	-8.153
         424	1	142	1	0.0	0.387	2.433	-9.935
         425	1	142	3	0.0	-0.375	3.202	-12.062
         426	1	142	4	0.0	0.209	3.57	-8.902
         427	1	143	1	0.0	2.092	3.382	-13.184
         428	1	143	3	0.0	1.127	2.632	-15.252999
         429	1	143	4	0.0	3.553	3.717	-13.418
         430	1	144	1	0.0	1.203	-0.014	-14.601
         431	1	144	3	0.0	-0.926	-0.211	-15.654
         432	1	144	4	0.0	1.689	-1.371	-14.108999
         433	1	145	1	0.0	-2.369	0.417	-13.436
         434	1	145	3	0.0	-3.911	1.504	-14.931001
         435	1	145	4	0.0	-2.854	0.55	-11.993
         436	1	146	1	0.0	-2.501	3.822	-15.076
         437	1	146	3	0.0	-3.15	3.928	-17.389
         438	1	146	4	0.0	-1.69	5.045	-14.665
         439	1	147	1	0.0	-1.055	2.423	-18.293
         440	1	147	3	0.0	-2.519	1.488	-19.947
         441	1	147	4	0.0	0.334	1.818	-18.445
         442	1	148	1	0.0	-3.659	-0.346	-18.255
         443	1	148	3	0.0	-5.676	0.13	-19.45
         444	1	148	4	0.0	-3.812	-1.439	-17.183
         445	1	149	1	0.0	-6.442	2.181	-17.832
         446	1	149	3	0.0	-7.419	3.076	-19.844
         447	1	149	4	0.0	-6.646	3.088	-16.626
         448	1	150	1	0.0	-5.168	4.376	-20.661
         449	1	150	3	0.0	-5.776	3.83	-22.904
         450	1	150	4	0.0	-3.907	5.221	-20.66
         451	1	151	1	0.0	-4.545	1.391	-22.919003
         452	1	151	3	0.0	-6.302	0.696	-24.371998
         453	1	151	4	0.0	-3.558	0.248	-22.647
         454	1	152	1	0.0	-8.025	-0.016	-22.391
         455	1	152	3	0.0	-9.878	0.768	-23.698
         456	1	152	4	0.0	-8.578	-0.672	-21.135
         457	1	153	1	0.0	-9.695	3.344	-22.926
         458	1	153	3	0.0	-10.421	3.877	-25.133
         459	1	153	4	0.0	-9.49	4.613	-22.089
         460	1	154	1	0.0	-7.933	3.796	-26.24
         461	1	154	3	0.0	-8.966	2.746	-28.157
         462	1	154	4	0.0	-6.439	4.053	-26.46
         463	1	155	1	0.0	-8.663	0.185	-27.201
         464	1	155	3	0.0	-10.632	-0.895	-28.009
         465	1	155	4	0.0	-8.005	-1.023	-26.563
         466	1	156	1	0.0	-12.379001	0.647	-26.529
         467	1	156	3	0.0	-13.936	1.665	-28.057999
         468	1	156	4	0.0	-12.933	0.546	-25.093
         469	1	157	1	0.0	-12.985	4.195	-27.745
         470	1	157	3	0.0	-13.579	4.517	-30.041
         471	1	157	4	0.0	-12.445	5.466	-27.093
         472	1	158	1	0.0	-11.065	3.815	-31.012
         473	1	158	3	0.0	-9.107	2.47	-31.193
         474	1	158	4	0.0	-10.164	4.994	-31.365
         475	1	159	1	0.0	-10.397	0.132	-31.679
         476	1	159	3	0.0	-8.476	-0.655	-32.864
         477	1	159	4	0.0	-11.553999	-0.867	-31.723
         478	1	160	1	0.0	-9.125	0.498	-35.225
         479	1	160	3	0.0	-6.775	0.819	-35.53
         480	1	160	4	0.0	-9.951	0.931	-36.464
         481	1	161	1	0.0	-6.701	3.248	-34.31
         482	1	161	3	0.0	-4.556	2.779	-33.343
         483	1	161	4	0.0	-7.048	4.666	-33.902
         484	1	162	1	0.0	-5.544	1.188	-31.344
         485	1	162	3	0.0	-3.733	-0.366	-31.56
         486	1	162	4	0.0	-6.404	0.779	-30.167
         487	1	163	1	0.0	-4.981	-1.862	-33.519
         488	1	163	3	0.0	-2.887	-2.33	-34.576
         489	1	163	4	0.0	-6.072	-2.602	-34.288
         490	1	164	1	0.0	-2.823	-0.025	-36.029
         491	1	164	3	0.0	-0.616	0.878	-35.942
         492	1	164	4	0.0	-3.35	0.794	-37.194
         493	1	165	1	0.0	-0.866	1.902	-33.38
         494	1	165	3	0.0	0.4	1.691	-31.387001
         495	1	165	4	0.0	-1.411	3.233	-32.872
         496	1	166	1	0.0	-0.208	-0.958	-30.958
         497	1	166	3	0.0	-0.513	-2.938	-32.252
         498	1	166	4	0.0	-1.236	-1.044	-29.842
         499	1	167	1	0.0	1.789	-4.156	-31.243
         500	1	167	3	0.0	2.36	-4.151	-28.916
         501	1	167	4	0.0	2.769	-4.117	-32.417
         502	1	168	1	0.0	3.778	-6.466	-29.006
         503	1	168	3	0.0	5.301	-5.521	-27.434
         504	1	168	4	0.0	4.161	-7.9270005	-29.339
         505	1	169	1	0.0	6.8810005	-4.348	-29.315
         506	1	169	3	0.0	7.209	-2.507	-27.846998
         507	1	169	4	0.0	7.708	-4.123	-30.582998
         508	1	170	1	0.0	4.915	-1.2	-28.530003
         509	1	170	3	0.0	4.65	-0.488	-26.264997
         510	1	170	4	0.0	3.789	-0.593	-29.36
         511	1	171	1	0.0	3.563	-2.841	-25.398998
         512	1	171	3	0.0	4.813	-2.467	-23.364002
         513	1	171	4	0.0	2.745	-4.125	-25.314
         514	1	172	1	0.0	7.103	-3.632	-24.302
         515	1	172	3	0.0	8.287	-1.924	-23.095
         516	1	172	4	0.0	8.04	-4.625	-24.976
         517	1	173	1	0.0	8.089	-0.038	-25.030998
         518	1	173	3	0.0	7.9070005	1.548	-23.272
         519	1	173	4	0.0	7.9990005	0.67	-26.395998
         520	1	174	1	0.0	5.228	1.21	-22.875
         521	1	174	3	0.0	5.663	1.555	-20.548
         522	1	174	4	0.0	3.76	1.017	-23.118
         523	1	175	1	0.0	6.353	-1.048	-20.036
         524	1	175	3	0.0	7.988	-0.09	-18.534
         525	1	175	4	0.0	6.3810005	-2.585	-20.035
         526	1	176	1	0.0	9.87	0.31	-20.471
         527	1	176	3	0.0	10.507	2.263	-19.236
         528	1	176	4	0.0	10.749	0.175	-21.708002
         529	1	177	1	0.0	8.534	3.851	-20.27
         530	1	177	3	0.0	8.361	4.823	-18.076
         531	1	177	4	0.0	7.574	4.502	-21.279
         532	1	178	1	0.0	6.644	2.933	-17.086
         533	1	178	3	0.0	7.87	3.404	-15.068999
         534	1	178	4	0.0	5.5469995	1.862	-16.964
         535	1	179	1	0.0	9.776	1.522	-15.468
         536	1	179	3	0.0	11.38	2.97	-14.455
         537	1	179	4	0.0	10.47	0.2	-15.821
         538	1	180	1	0.0	11.817999	4.473	-16.715
         539	1	180	3	0.0	12.08	6.316	-15.207001
         540	1	180	4	0.0	12.009	4.906	-18.168
         541	1	181	1	0.0	9.426	6.914	-15.047
         542	1	181	3	0.0	9.853	7.366	-12.744
         543	1	181	4	0.0	7.962	7.18	-15.468
         544	1	182	1	0.0	9.437	4.79	-11.903
         545	1	182	3	0.0	11.065	5.284	-10.211
         546	1	182	4	0.0	8.955	3.357	-11.791
         547	1	183	1	0.0	13.222999	4.801	-11.801
         548	1	183	3	0.0	14.246	6.713	-10.740999
         549	1	183	4	0.0	14.172	4.085	-12.767
         550	1	184	1	0.0	13.291	8.508	-12.546
         551	1	184	3	0.0	13.209	10.256	-10.921
         552	1	184	5	0.0	13.026001	8.885133	-12.437439
         553	1	185	1	0.0	11.063001	9.218	-9.57
         554	1	185	3	0.0	12.126	9.635	-7.462
         555	1	185	4	0.0	9.577	8.771	-9.419
         556	1	186	1	0.0	13.04	7.0590005	-7.1589994
         557	1	186	3	0.0	15.204	6.854	-6.2170005
         558	1	186	4	0.0	12.764	5.564	-7.0190005
         559	1	187	1	0.0	16.506	8.223	-8.186
         560	1	187	3	0.0	17.92	9.19	-6.541
         561	1	187	4	0.0	16.979	8.501	-9.627
         562	1	188	1	0.0	16.558	11.443001	-6.103
         563	1	188	3	0.0	17.168	11.737999	-3.836
         564	1	188	4	0.0	15.576	12.592	-6.304
         565	1	189	1	0.0	15.991	9.43	-2.917
         566	1	189	3	0.0	17.875	9.538	-1.444
         567	1	189	4	0.0	14.982	8.285	-2.697
         568	1	190	1	0.0	19.514	7.883	-2.755
         569	1	190	3	0.0	21.461	9.177	-2.304
         570	1	190	4	0.0	19.926	6.673	-3.599
         571	1	191	1	0.0	20.961	11.139	-4.11
         572	1	191	3	0.0	21.923998	12.504	-2.388
         573	1	191	4	0.0	20.565	11.876	-5.392
         574	1	192	1	0.0	19.544	13.088	-1.192
         575	1	192	3	0.0	20.602	12.906999	0.929
         576	1	192	4	0.0	18.078	13.547	-1.05
         577	1	193	1	0.0	20.258	10.202	1.146
         578	1	193	3	0.0	22.28	10.115	2.418
         579	1	193	5	0.0	19.827	8.831685	2.0556083
         580	1	194	1	0.0	23.935	10.014	0.276
         581	1	194	3	0.0	25.616	11.466	1.166
         582	1	194	4	0.0	24.531	9.48	-1.02
         583	1	195	1	0.0	24.36	13.764	0.468
         584	1	195	3	0.0	24.807	15.005	2.471
         585	1	195	4	0.0	23.813997	14.782	-0.525
         586	1	196	1	0.0	22.508999	14.172	3.779
         587	1	196	3	0.0	20.687	12.657999	4.063
         588	1	196	4	0.0	21.605	15.409001	3.724
         589	1	197	1	0.0	21.864	11.255	6.083
         590	1	197	3	0.0	19.984	10.761	7.422
         591	1	197	4	0.0	22.97	10.475	6.827
         592	1	198	1	0.0	19.68	13.265001	8.404
         593	1	198	3	0.0	17.311	13.405	8.486
         594	1	198	4	0.0	20.036	14.61	9.032
         595	1	199	1	0.0	16.939	13.45	5.761
         596	1	199	3	0.0	15.130999	12.026001	5.246
         597	1	199	4	0.0	17.128	14.097	4.39
         598	1	200	1	0.0	16.48	9.654	5.733
         599	1	200	3	0.0	16.31	7.716	7.08
         600	1	200	4	0.0	17.169	8.847	4.623
         601	1	201	1	0.0	16.929	8.956	9.426
         602	1	201	3	0.0	16.409	11.1	10.38
         603	1	201	4	0.0	18.357	8.656	9.848
         604	1	202	1	0.0	15.050999	9.924	12.544
         605	1	202	3	0.0	15.832	8.289	14.079
         606	1	202	4	0.0	13.538999	9.66	12.630001
         607	1	203	1	0.0	17.07	10.224	15.752
         608	1	203	3	0.0	18.727	8.599	16.388
         609	1	203	4	0.0	16.243	9.657	16.894
         610	1	204	1	0.0	19.952	8.588	13.829001
         611	1	204	3	0.0	20.721	6.321	13.712999
         612	1	204	4	0.0	21.23	8.976	14.549
         613	1	205	1	0.0	18.302	5.197	14.399
         614	1	205	3	0.0	17.523	3.68	12.744
         615	1	205	4	0.0	17.834	4.891	15.822
         616	1	206	1	0.0	15.025	4.809	12.533
         617	1	206	3	0.0	15.546	6.402	10.82
         618	1	206	4	0.0	13.693	5.237	13.101
         619	1	207	1	0.0	14.906999	4.63	8.749
         620	1	207	3	0.0	12.685999	4.395	7.865
         621	1	207	4	0.0	15.329999	3.371	7.983
         622	1	208	1	0.0	12.167001	7.0989995	7.892
         623	1	208	3	0.0	13.307	9.14	7.382
         624	1	208	4	0.0	11.323	7.549	9.108
         625	1	209	1	0.0	12.19	9.396	4.89
         626	1	209	3	0.0	10.252	10.68	5.451
         627	1	209	4	0.0	11.762001	8.996	3.473
         628	1	210	1	0.0	11.673001	13.019	5.75
         629	1	210	3	0.0	11.368	13.423	3.409
         630	1	210	4	0.0	12.346	13.66	6.963
         631	1	211	1	0.0	12.244	16.079	3.529
         632	1	211	3	0.0	10.456	15.773	1.975
         633	1	211	4	0.0	13.187	15.642999	2.417
         634	1	212	1	0.0	8.638	17.358	3.285
         635	1	212	3	0.0	7.328	17.505	1.32
         636	1	212	4	0.0	8.167	18.404	4.264
         637	1	213	1	0.0	9.193	18.849	-0.149
         638	1	213	3	0.0	8.276	17.496	-1.899
         639	1	213	4	0.0	10.322	19.777	-0.588
         640	1	214	1	0.0	10.093	15.487	-1.612
         641	1	214	3	0.0	8.42	13.854001	-2.119
         642	1	214	4	0.0	11.426	14.751	-1.422
         643	1	215	1	0.0	7.331	13.836	0.394
         644	1	215	3	0.0	5.362	13.475	-0.889
         645	1	215	4	0.0	7.192	13.881	1.906