ITEM: TIMESTEP
0
ITEM: NUMBER OF ATOMS
2694
ITEM: BOX BOUNDS ss ss ss
-33.231 40.114
-34.958 46.595
-54.376 47.662
ITEM: ATOMS id type xs ys zs
1 1 0.333192 0.765784 0.667065
2 3 0.327071 0.737177 0.666565
3 4 0.352417 0.768249 0.672485
4 1 0.305815 0.736956 0.68842
5 3 0.28595 0.718232 0.67713
6 4 0.299611 0.740181 0.702425
7 1 0.265349 0.742205 0.665595
8 3 0.262908 0.725406 0.646475
9 4 0.25455 0.757986 0.663478
10 1 0.296053 0.734148 0.63641
11 3 0.300293 0.706118 0.629707
12 4 0.3118 0.744706 0.631676
13 1 0.314077 0.696296 0.653119
14 3 0.297962 0.671073 0.649582
15 4 0.324739 0.695339 0.666203
16 1 0.265949 0.681299 0.659803
17 3 0.249928 0.666744 0.64329
18 4 0.251851 0.689086 0.668819
19 1 0.254005 0.690091 0.624375
20 3 0.257864 0.66813 0.608861
21 4 0.254414 0.706878 0.617799
22 1 0.294785 0.666131 0.612252
23 3 0.290586 0.636825 0.610037
24 4 0.314977 0.670828 0.614007
25 1 0.282828 0.632031 0.636126
26 3 0.263863 0.610842 0.627413
27 4 0.28186 0.63376 0.650944
28 1 0.233772 0.630142 0.624385
29 3 0.226491 0.61479 0.605079
30 4 0.21917 0.643336 0.626659
31 1 0.249001 0.632166 0.589035
32 3 0.254346 0.606661 0.577991
33 4 0.259213 0.646083 0.582577
34 1 0.281655 0.596814 0.59374
35 3 0.271293 0.569127 0.592279
36 4 0.299352 0.596716 0.601776
37 1 0.245006 0.572094 0.610919
38 3 0.227746 0.554462 0.596768
39 4 0.235013 0.576558 0.623856
40 1 0.212393 0.57901 0.582675
41 3 0.21467 0.563793 0.5628
42 4 0.202154 0.594619 0.579265
43 1 0.250596 0.571297 0.558312
44 3 0.252519 0.54399 0.549629
45 4 0.268253 0.580862 0.557253
46 1 0.26025 0.529668 0.573316
47 3 0.240344 0.50751 0.567828
48 4 0.269698 0.526455 0.586448
49 1 0.20923 0.523709 0.574923
50 3 0.190142 0.512464 0.558586
51 5 0.2275 0.513226 0.579549
52 1 0.207553 0.527252 0.537927
53 3 0.212148 0.507204 0.521325
54 4 0.214098 0.541918 0.529665
55 1 0.236894 0.48897 0.535644
56 3 0.230145 0.460559 0.538329
57 4 0.257441 0.491312 0.535928
58 1 0.225891 0.462276 0.564995
59 3 0.194751 0.471068 0.562369
60 4 0.234576 0.463919 0.578784
61 1 0.180203 0.443662 0.573081
62 3 0.182112 0.453975 0.594916
63 4 0.176631 0.425453 0.575099
64 1 0.149744 0.470982 0.593387
65 3 0.125366 0.455042 0.602481
66 4 0.135633 0.482717 0.587987
67 1 0.145627 0.445796 0.624169
68 3 0.170973 0.457555 0.635851
69 4 0.147849 0.427661 0.621141
70 1 0.157734 0.449609 0.65998
71 3 0.186475 0.443662 0.66979
72 4 0.144304 0.447819 0.671319
73 1 0.190402 0.413621 0.65849
74 3 0.221883 0.419457 0.65409
75 4 0.184566 0.39562 0.65602
76 1 0.216552 0.425429 0.627854
77 3 0.239117 0.44625 0.625551
78 4 0.209967 0.421848 0.614007
79 1 0.216716 0.471693 0.633313
80 3 0.237371 0.486825 0.646886
81 4 0.199782 0.482165 0.630667
82 1 0.2269 0.472024 0.669868
83 3 0.255287 0.482042 0.677757
84 4 0.216756 0.46208 0.680305
85 1 0.276447 0.45731 0.670299
86 3 0.299993 0.477101 0.665615
87 4 0.282269 0.440033 0.666899
88 1 0.287927 0.484409 0.640967
89 3 0.297444 0.511716 0.646151
90 4 0.280537 0.482251 0.626972
91 1 0.265049 0.520827 0.656902
92 3 0.280728 0.536853 0.673063
93 4 0.244611 0.522838 0.659333
94 1 0.289754 0.510809 0.688479
95 3 0.318713 0.523598 0.693026
96 4 0.288009 0.495016 0.696407
97 1 0.335292 0.511667 0.671132
98 3 0.349703 0.538435 0.67074
99 4 0.341796 0.499834 0.660391
100 1 0.324985 0.552058 0.654305
101 3 0.330411 0.576999 0.666477
102 4 0.310778 0.554511 0.643241
103 1 0.307478 0.569421 0.686225
104 3 0.328898 0.582909 0.700043
105 4 0.290995 0.563241 0.693977
106 1 0.350058 0.555933 0.704179
107 3 0.379153 0.568808 0.704345
108 4 0.355171 0.538423 0.707756
109 1 0.379603 0.575932 0.678355
110 3 0.389624 0.602602 0.685598
111 4 0.379862 0.572438 0.663557
112 1 0.356821 0.617549 0.680619
113 3 0.345027 0.635979 0.696133
114 4 0.342532 0.62265 0.670662
115 1 0.348258 0.614938 0.717174
116 3 0.369009 0.625262 0.733295
117 4 0.333261 0.603742 0.722055
118 1 0.390279 0.598041 0.733756
119 3 0.409926 0.609947 0.717566
120 4 0.396073 0.58015 0.734217
121 1 0.431086 0.626378 0.735991
122 3 0.463085 0.623276 0.738548
123 4 0.427677 0.644182 0.740332
124 1 0.460468 0.602994 0.760119
125 3 0.440316 0.586343 0.772938
126 4 0.467776 0.614128 0.771095
127 1 0.457427 0.557343 0.766675
128 3 0.425496 0.55429 0.763176
129 5 0.463113 0.53761 0.760601
130 1 0.429136 0.537283 0.740459
131 3 0.424801 0.514071 0.754493
132 5 0.443984 0.532851 0.715539
133 1 0.388111 0.513323 0.751485
134 3 0.390538 0.483992 0.753121
135 4 0.368287 0.518951 0.750358
136 1 0.392747 0.479185 0.726396
137 3 0.42161 0.48604 0.717154
138 4 0.381158 0.478928 0.713979
139 1 0.436553 0.455618 0.722937
140 3 0.422128 0.432712 0.712284
141 4 0.447392 0.452344 0.735344
142 1 0.45376 0.423075 0.699769
143 3 0.480346 0.415865 0.712274
144 4 0.457809 0.430076 0.686127
145 1 0.484382 0.385565 0.702376
146 3 0.505297 0.398036 0.687509
147 4 0.479256 0.369637 0.694976
148 1 0.534583 0.395559 0.704943
149 3 0.542314 0.373634 0.719614
150 4 0.537964 0.412407 0.710784
151 1 0.578158 0.373389 0.712215
152 3 0.567401 0.351489 0.698534
153 5 0.56436 0.378096 0.708721
154 1 0.584552 0.327394 0.712489
155 3 0.56117 0.321202 0.728091
156 4 0.599727 0.318443 0.719595
157 1 0.537801 0.308818 0.709324
158 3 0.536969 0.293527 0.689351
159 4 0.523417 0.321803 0.705708
160 1 0.528352 0.26454 0.701396
161 3 0.513436 0.258936 0.681148
162 4 0.527439 0.250463 0.711196
163 1 0.479937 0.268929 0.689586
164 3 0.474947 0.276017 0.667222
165 4 0.463031 0.270879 0.698377
166 1 0.487041 0.306696 0.667898
167 3 0.50028 0.30303 0.646769
168 4 0.490899 0.323851 0.673288
169 1 0.531311 0.288365 0.655618
170 3 0.52917 0.272461 0.635979
171 4 0.547999 0.283901 0.663743
172 1 0.506347 0.249531 0.646426
173 3 0.492808 0.248844 0.625051
174 4 0.496707 0.237931 0.655667
175 1 0.470407 0.275232 0.629403
176 3 0.47537 0.281388 0.606676
177 4 0.457673 0.287641 0.635753
178 1 0.507356 0.298236 0.6109
179 3 0.516245 0.286562 0.590162
180 4 0.522053 0.309259 0.616966
181 1 0.528625 0.257747 0.600433
182 3 0.517309 0.246306 0.580441
183 4 0.537419 0.244945 0.609567
184 1 0.482282 0.242824 0.588673
185 3 0.474606 0.249212 0.566534
186 4 0.465335 0.23977 0.597493
187 1 0.475983 0.282503 0.569562
188 3 0.486618 0.282467 0.547316
189 4 0.473993 0.299805 0.575501
190 1 0.522558 0.277684 0.553862
191 3 0.523062 0.262173 0.533811
192 4 0.5408 0.277868 0.560967
193 1 0.511814 0.233468 0.545003
194 3 0.497553 0.229458 0.524128
195 4 0.508719 0.219318 0.554588
196 1 0.466099 0.245252 0.530234
197 3 0.464817 0.254436 0.508075
198 4 0.44941 0.252143 0.537662
199 1 0.487218 0.280627 0.511711
200 3 0.496244 0.274104 0.489612
201 4 0.496285 0.295722 0.517689
202 1 0.526621 0.256949 0.496884
203 3 0.519613 0.241499 0.477489
204 4 0.543677 0.251088 0.504361
205 1 0.498957 0.218729 0.489759
206 3 0.482828 0.217368 0.469413
207 5 0.507969 0.216025 0.492174
208 1 0.459295 0.241818 0.475441
209 3 0.459622 0.246919 0.452508
210 5 0.473625 0.253885 0.478597
211 1 0.487463 0.268513 0.453155
212 3 0.497812 0.258752 0.432339
213 4 0.499134 0.28308 0.457222
214 1 0.515795 0.232242 0.441982
215 3 0.504642 0.218471 0.422823
216 4 0.528407 0.221476 0.450411
217 1 0.472002 0.2099 0.433182
218 3 0.458572 0.214204 0.412111
219 4 0.457086 0.204186 0.44259
220 1 0.456868 0.247471 0.413944
221 3 0.46539 0.246968 0.391286
222 4 0.453432 0.264773 0.419324
223 1 0.502202 0.247397 0.395853
224 3 0.503565 0.230684 0.37637
225 4 0.521017 0.250671 0.401831
226 1 0.496694 0.201746 0.388816
227 3 0.480742 0.194634 0.369137
228 4 0.495535 0.188135 0.398842
229 1 0.448006 0.207203 0.376801
230 3 0.440821 0.213812 0.354731
231 4 0.431836 0.212463 0.385307
232 1 0.460386 0.241855 0.354064
233 3 0.471689 0.23424 0.332856
234 4 0.465035 0.259561 0.358004
235 1 0.504193 0.222763 0.341882
236 3 0.50681 0.203512 0.324448
237 4 0.521644 0.220948 0.349889
238 1 0.485159 0.180214 0.335542
239 3 0.466412 0.169681 0.318587
240 4 0.48595 0.167278 0.346312
241 1 0.435531 0.18594 0.32579
242 3 0.443057 0.208993 0.312246
243 4 0.42011 0.191789 0.334728
244 1 0.424964 0.197062 0.290627
245 3 0.408153 0.219452 0.281709
246 4 0.423519 0.184616 0.279386
247 1 0.379685 0.217257 0.299447
248 3 0.372323 0.244688 0.30571
249 4 0.363965 0.208797 0.306102
250 1 0.404199 0.249519 0.319695
251 3 0.427241 0.27007 0.318979
252 4 0.410335 0.245068 0.333493
253 1 0.436744 0.26454 0.293067
254 3 0.419974 0.277096 0.275329
255 4 0.445975 0.253369 0.283198
256 1 0.421474 0.308057 0.286148
257 3 0.444638 0.320552 0.299202
258 4 0.4009 0.30975 0.288451
259 1 0.43699 0.351624 0.290715
260 3 0.438244 0.370765 0.308326
261 4 0.434944 0.36472 0.280219
262 1 0.410866 0.356137 0.32287
263 3 0.423492 0.351673 0.344225
264 4 0.390115 0.356701 0.322821
265 1 0.425469 0.318394 0.341569
266 3 0.453146 0.315292 0.353329
267 4 0.420833 0.300467 0.338354
268 1 0.474647 0.330534 0.335267
269 3 0.491267 0.342685 0.352849
270 4 0.483141 0.335524 0.322086
271 1 0.467121 0.36781 0.356661
272 3 0.471798 0.36456 0.379721
273 4 0.454428 0.382156 0.354309
274 1 0.446915 0.339804 0.382593
275 3 0.466139 0.326855 0.398293
276 4 0.429436 0.329859 0.381417
277 1 0.488172 0.31257 0.379878
278 3 0.5124 0.318505 0.394863
279 4 0.494512 0.303851 0.367206
280 1 0.519763 0.348816 0.384896
281 3 0.526007 0.358613 0.406515
282 4 0.523171 0.362832 0.375272
283 1 0.490081 0.362366 0.41317
284 3 0.498766 0.352409 0.434466
285 4 0.469698 0.366142 0.412513
286 1 0.495617 0.320086 0.428154
287 3 0.521263 0.313587 0.441649
288 4 0.488418 0.304207 0.422578
289 1 0.546622 0.324464 0.423646
290 3 0.561974 0.334261 0.442953
291 4 0.556589 0.327689 0.4107
292 1 0.545872 0.364511 0.442374
293 3 0.548599 0.362513 0.465797
294 4 0.536778 0.38044 0.438062
295 1 0.516572 0.346241 0.469355
296 3 0.531025 0.331686 0.487064
297 4 0.496857 0.340723 0.468218
298 1 0.547358 0.309198 0.471511
299 3 0.572786 0.310755 0.486387
300 4 0.550999 0.296789 0.460936
301 1 0.588493 0.337363 0.474755
302 3 0.597655 0.347627 0.495737
303 4 0.595596 0.349172 0.464494
304 1 0.56406 0.359141 0.502548
305 3 0.572282 0.347676 0.523432
306 4 0.54549 0.368043 0.502146
307 1 0.555443 0.318431 0.51913
308 3 0.575908 0.301975 0.531469
309 5 0.55603 0.317839 0.527422
310 1 0.604513 0.304612 0.514014
311 3 0.630868 0.310277 0.526539
312 4 0.611316 0.298174 0.500892
313 1 0.632163 0.343114 0.520463
314 3 0.638053 0.360207 0.538887
315 4 0.639485 0.351967 0.508409
316 1 0.604527 0.375167 0.538652
317 3 0.600518 0.374873 0.562006
318 4 0.591656 0.386755 0.531469
319 1 0.574518 0.350827 0.562046
320 3 0.582453 0.344009 0.583861
321 4 0.558279 0.339988 0.558459
322 1 0.612734 0.326487 0.578882
323 3 0.625401 0.338136 0.598189
324 4 0.6257 0.315292 0.571562
325 1 0.637508 0.36613 0.586634
326 3 0.629436 0.381212 0.605872
327 4 0.646697 0.377718 0.577158
328 1 0.593087 0.383076 0.599835
329 3 0.585793 0.378147 0.622454
330 4 0.575554 0.385958 0.592172
331 1 0.589311 0.344733 0.620612
332 3 0.602768 0.345456 0.641918
333 4 0.58822 0.327223 0.615545
334 1 0.636921 0.353647 0.633244
335 3 0.639866 0.371206 0.652051
336 4 0.654469 0.354739 0.625238
337 1 0.621692 0.396809 0.641281
338 3 0.604799 0.406742 0.659637
339 4 0.616811 0.409967 0.631539
340 1 0.582903 0.379385 0.661851
341 3 0.586652 0.371133 0.684167
342 4 0.565083 0.372776 0.655707
343 1 0.607035 0.343727 0.678385
344 3 0.625591 0.343311 0.697338
345 4 0.61403 0.328424 0.671652
346 1 0.64427 0.37182 0.69138
347 3 0.651496 0.39974 0.696309
348 4 0.662267 0.371721 0.683833
349 1 0.615707 0.407698 0.70363
350 3 0.625741 0.435177 0.700994
351 4 0.622101 0.409832 0.717909
352 1 0.624037 0.433215 0.673357
353 3 0.648061 0.45265 0.670691
354 4 0.610989 0.447782 0.674219
355 1 0.675152 0.432148 0.679708
356 3 0.682882 0.409709 0.665576
357 4 0.683537 0.425478 0.692242
358 1 0.700961 0.429402 0.647602
359 3 0.732361 0.430481 0.653276
360 4 0.702843 0.443724 0.638047
361 1 0.738046 0.397398 0.653041
362 3 0.767073 0.39242 0.6433
363 4 0.732265 0.380342 0.657412
364 1 0.755062 0.398735 0.618123
365 3 0.764128 0.425981 0.624267
366 4 0.742791 0.396871 0.606098
367 1 0.790156 0.429622 0.605843
368 3 0.76316 0.441468 0.595984
369 4 0.804227 0.424877 0.595376
370 1 0.774886 0.473447 0.600472
371 3 0.756384 0.483918 0.58294
372 4 0.784825 0.488419 0.606049
373 1 0.779058 0.473986 0.563339
374 3 0.758334 0.46609 0.546659
375 4 0.796891 0.471546 0.555646
376 1 0.743786 0.440156 0.55988
377 3 0.711582 0.440364 0.557381
378 4 0.745695 0.422927 0.565642
379 1 0.705815 0.465722 0.574335
380 3 0.681969 0.471656 0.558949
381 4 0.706838 0.47661 0.586546
382 1 0.699407 0.493434 0.544356
383 3 0.685718 0.484348 0.524657
384 4 0.712659 0.507314 0.541093
385 1 0.705351 0.455924 0.522805
386 3 0.676679 0.444472 0.515769
387 4 0.721276 0.443834 0.522737
388 1 0.665676 0.435827 0.540299
389 3 0.635749 0.442068 0.532096
390 4 0.665431 0.43053 0.554695
391 1 0.636471 0.474256 0.538701
392 3 0.618433 0.478474 0.519336
393 4 0.640412 0.490356 0.546051
394 1 0.647583 0.479382 0.502793
395 3 0.628264 0.466556 0.486946
396 4 0.666385 0.482594 0.496913
397 1 0.633717 0.435226 0.495815
398 3 0.60255 0.42988 0.491131
399 4 0.642975 0.419862 0.500951
400 1 0.589747 0.441394 0.51425
401 3 0.564278 0.449806 0.500951
402 4 0.587756 0.446029 0.528715
403 1 0.578158 0.479749 0.495178
404 3 0.564933 0.476868 0.474029
405 4 0.587211 0.496634 0.496942
406 1 0.593728 0.460044 0.463386
407 3 0.569159 0.448837 0.450724
408 4 0.612721 0.452712 0.46077
409 1 0.564238 0.422314 0.46661
410 3 0.532347 0.422584 0.461759
411 4 0.56871 0.407441 0.474892
412 1 0.52358 0.4456 0.479958
413 3 0.50182 0.456672 0.464768
414 4 0.522571 0.454686 0.492895
415 1 0.526389 0.476414 0.452665
416 3 0.511378 0.470062 0.432457
417 4 0.54155 0.489007 0.450479
418 1 0.531706 0.44289 0.427057
419 3 0.505297 0.432099 0.416639
420 4 0.547208 0.430358 0.426322
421 1 0.488977 0.421493 0.439052
422 3 0.462554 0.427918 0.426135
423 4 0.485391 0.415619 0.452998
424 1 0.458354 0.458487 0.435534
425 3 0.447965 0.467917 0.414689
426 4 0.455927 0.472429 0.445658
427 1 0.481601 0.470124 0.403693
428 3 0.468444 0.460927 0.383416
429 4 0.50152 0.474232 0.401399
430 1 0.46948 0.428482 0.389806
431 3 0.440453 0.426067 0.379486
432 4 0.476106 0.411843 0.394628
433 1 0.420779 0.433767 0.401223
434 3 0.399755 0.447096 0.386572
435 4 0.414166 0.435398 0.415365
436 1 0.418979 0.475519 0.385151
437 3 0.41013 0.476819 0.362483
438 4 0.430036 0.490515 0.389179
439 1 0.438694 0.458365 0.353623
440 3 0.418733 0.4469 0.337414
441 4 0.457632 0.450946 0.352134
442 1 0.40319 0.424411 0.353996
443 3 0.37569 0.430248 0.342284
444 4 0.401104 0.411009 0.364501
445 1 0.365246 0.455397 0.358141
446 3 0.351926 0.466372 0.338423
447 4 0.362465 0.466519 0.36996
448 1 0.382616 0.482312 0.330416
449 3 0.374327 0.475617 0.308434
450 4 0.399809 0.492674 0.330426
451 1 0.391111 0.44571 0.308287
452 3 0.367155 0.437188 0.294047
453 4 0.404567 0.431695 0.310953
454 1 0.343664 0.428458 0.313462
455 3 0.318399 0.438071 0.300653
456 4 0.336124 0.420414 0.325771
457 1 0.320894 0.469658 0.308219
458 3 0.310996 0.476193 0.286589
459 4 0.323689 0.485218 0.316421
460 1 0.344918 0.4752 0.27574
461 3 0.330834 0.462325 0.256953
462 4 0.365287 0.478352 0.273584
463 1 0.334965 0.430922 0.266322
464 3 0.308119 0.417679 0.258404
465 4 0.343936 0.41611 0.272575
466 1 0.2843 0.436587 0.272908
467 3 0.263072 0.44907 0.257924
468 4 0.276747 0.435349 0.286981
469 1 0.276038 0.480093 0.260991
470 3 0.267939 0.484041 0.23849
471 4 0.2834 0.495678 0.267381
472 1 0.302216 0.475433 0.228974
473 3 0.328911 0.458941 0.2272
474 4 0.3145 0.48989 0.225514
475 1 0.311323 0.430272 0.222437
476 3 0.337514 0.420622 0.210823
477 4 0.295548 0.418023 0.222006
478 1 0.328666 0.43476 0.187685
479 3 0.360706 0.438696 0.184696
480 4 0.317404 0.44007 0.175542
481 1 0.361715 0.468481 0.196652
482 3 0.390961 0.46273 0.206129
483 4 0.356984 0.485868 0.200651
484 1 0.37749 0.443221 0.22572
485 3 0.402181 0.424166 0.223603
486 4 0.365765 0.438206 0.237255
487 1 0.385166 0.405822 0.204404
488 3 0.413716 0.400083 0.194045
489 4 0.370291 0.396748 0.196868
490 1 0.414589 0.428347 0.179806
491 3 0.444679 0.43942 0.180658
492 4 0.407403 0.43839 0.168388
493 1 0.441271 0.451976 0.205766
494 3 0.458532 0.449389 0.225298
495 4 0.43384 0.468297 0.210745
496 1 0.450242 0.416907 0.229503
497 3 0.446084 0.392628 0.216821
498 4 0.436226 0.415852 0.24044
499 1 0.477469 0.377693 0.22671
500 3 0.485255 0.377754 0.249515
501 4 0.490831 0.378171 0.215204
502 1 0.504588 0.349368 0.248633
503 3 0.525353 0.360955 0.264039
504 4 0.50981 0.331453 0.245369
505 1 0.546895 0.375339 0.245605
506 3 0.551367 0.397913 0.259991
507 4 0.55817 0.378098 0.233178
508 1 0.52009 0.413939 0.253298
509 3 0.516477 0.42267 0.275495
510 4 0.504738 0.421382 0.245164
511 1 0.501657 0.393818 0.283982
512 3 0.518699 0.398404 0.303926
513 4 0.490504 0.378073 0.284815
514 1 0.549922 0.384118 0.294733
515 3 0.566064 0.405062 0.306562
516 4 0.562697 0.371942 0.288128
517 1 0.563365 0.428188 0.287589
518 3 0.560884 0.447635 0.304828
519 4 0.562138 0.436869 0.274212
520 1 0.524357 0.443491 0.308718
521 3 0.530288 0.447721 0.331524
522 4 0.504342 0.441124 0.306337
523 1 0.539696 0.415803 0.336541
524 3 0.561988 0.42755 0.351261
525 4 0.540078 0.396957 0.336551
526 1 0.587647 0.432455 0.332278
527 3 0.596332 0.456403 0.344382
528 4 0.599632 0.4308 0.320155
529 1 0.569432 0.475875 0.334248
530 3 0.567073 0.487793 0.35575
531 4 0.556343 0.483857 0.32436
532 1 0.543664 0.464618 0.365452
533 3 0.560379 0.470394 0.385219
534 4 0.528707 0.451486 0.366648
535 1 0.586366 0.447316 0.381309
536 3 0.608235 0.465072 0.391237
537 4 0.595828 0.431106 0.377849
538 1 0.614207 0.483502 0.369088
539 3 0.617779 0.5061 0.383867
540 4 0.616811 0.488811 0.354848
541 1 0.581594 0.513433 0.385435
542 3 0.587416 0.518975 0.408005
543 4 0.561633 0.516695 0.381309
544 1 0.581744 0.487389 0.416247
545 3 0.60394 0.493446 0.432829
546 4 0.575172 0.469817 0.417345
547 1 0.633363 0.487523 0.417247
548 3 0.647311 0.510968 0.427635
549 4 0.646302 0.478744 0.407779
550 1 0.63429 0.532979 0.409945
551 3 0.633172 0.554412 0.425871
552 5 0.630677 0.537603 0.411009
553 1 0.603913 0.541685 0.439111
554 3 0.618406 0.546798 0.45977
555 4 0.583653 0.536203 0.440591
556 1 0.630868 0.515211 0.462739
557 3 0.660372 0.512697 0.471971
558 4 0.627105 0.496879 0.464111
559 1 0.678124 0.529484 0.452674
560 3 0.697403 0.541341 0.468796
561 4 0.684573 0.532893 0.438552
562 1 0.678833 0.568967 0.473088
563 3 0.68715 0.572585 0.495306
564 4 0.665444 0.583056 0.471119
565 1 0.671102 0.544284 0.504312
566 3 0.696789 0.545608 0.518748
567 4 0.657345 0.530244 0.506468
568 1 0.719136 0.525315 0.5059
569 3 0.745681 0.541182 0.51032
570 4 0.724753 0.510478 0.497628
571 1 0.738864 0.56524 0.49262
572 3 0.751994 0.581977 0.509496
573 4 0.733465 0.574277 0.480056
574 1 0.719545 0.589138 0.521218
575 3 0.73397 0.586919 0.542004
576 4 0.699557 0.594767 0.522609
577 1 0.729279 0.55375 0.544131
578 3 0.756848 0.552684 0.556597
579 5 0.723403 0.536948 0.553045
580 1 0.779412 0.551445 0.535604
581 3 0.802331 0.569249 0.544327
582 4 0.787538 0.544897 0.522903
583 1 0.785207 0.597427 0.537486
584 3 0.791301 0.612645 0.557116
585 4 0.777763 0.60991 0.527754
586 1 0.75997 0.60243 0.569935
587 3 0.735129 0.583866 0.572718
588 4 0.747645 0.617598 0.569396
589 1 0.751176 0.566662 0.592515
590 3 0.725544 0.560605 0.605637
591 4 0.766255 0.557098 0.599806
592 1 0.721399 0.591309 0.615261
593 3 0.689099 0.593025 0.616065
594 4 0.726253 0.607801 0.621416
595 1 0.684028 0.593577 0.589359
596 3 0.659377 0.576116 0.584312
597 4 0.686604 0.601511 0.575923
598 1 0.677769 0.547031 0.589084
599 3 0.675452 0.523267 0.602285
600 4 0.687163 0.537135 0.578206
601 1 0.683891 0.538472 0.625277
602 3 0.676801 0.564762 0.634626
603 4 0.703361 0.534793 0.629413
604 1 0.658286 0.550342 0.655834
605 3 0.668934 0.530293 0.670878
606 4 0.637671 0.547104 0.656677
607 1 0.685814 0.55402 0.687273
608 3 0.708405 0.534094 0.693506
609 4 0.674538 0.547068 0.698465
610 1 0.725107 0.53396 0.668427
611 3 0.735592 0.506162 0.667291
612 4 0.742532 0.538717 0.675484
613 1 0.702611 0.492379 0.674014
614 3 0.69199 0.473778 0.657794
615 4 0.69623 0.488627 0.687959
616 1 0.657932 0.487622 0.655726
617 3 0.665035 0.507155 0.638938
618 4 0.639771 0.49287 0.661293
619 1 0.656323 0.485427 0.618642
620 3 0.626041 0.482545 0.609979
621 4 0.66209 0.469989 0.611135
622 1 0.618965 0.515701 0.610243
623 3 0.634508 0.540728 0.605245
624 4 0.607458 0.521219 0.62216
625 1 0.619279 0.543867 0.580823
626 3 0.592856 0.559612 0.586321
627 4 0.613443 0.538962 0.566936
628 1 0.61223 0.588292 0.589251
629 3 0.608071 0.593246 0.566309
630 4 0.621406 0.596152 0.601139
631 1 0.620015 0.625814 0.567485
632 3 0.595637 0.622062 0.552255
633 4 0.632872 0.620468 0.556587
634 1 0.57085 0.641497 0.565093
635 3 0.552989 0.643299 0.545836
636 4 0.564428 0.654323 0.574688
637 1 0.578417 0.65978 0.531439
638 3 0.565915 0.643189 0.514289
639 4 0.59381 0.671159 0.527137
640 1 0.590688 0.618555 0.517101
641 3 0.567878 0.598531 0.512133
642 4 0.608862 0.60953 0.518964
643 1 0.55303 0.59831 0.536761
644 3 0.526184 0.593884 0.524187
645 4 0.551135 0.598862 0.551579
646 1 0.516027 0.626022 0.523354
647 3 0.504152 0.619021 0.502215
648 4 0.512782 0.643716 0.527235
649 1 0.534447 0.6278 0.48869
650 3 0.525625 0.605802 0.474333
651 4 0.551721 0.636825 0.4843
652 1 0.543145 0.581965 0.487906
653 3 0.519708 0.563266 0.482183
654 5 0.543404 0.560555 0.486402
655 1 0.495903 0.573198 0.501
656 3 0.473407 0.567717 0.484584
657 4 0.488322 0.578716 0.514181
658 1 0.47143 0.598887 0.475725
659 3 0.465662 0.588721 0.454448
660 4 0.470502 0.617488 0.475264
661 1 0.501602 0.583988 0.447951
662 3 0.490776 0.559501 0.437513
663 4 0.521644 0.588856 0.445834
664 1 0.505297 0.538889 0.456026
665 3 0.485595 0.515934 0.457957
666 4 0.520458 0.532096 0.464827
667 1 0.457359 0.532341 0.46907
668 3 0.429286 0.534389 0.457702
669 4 0.456718 0.530085 0.483869
670 1 0.421297 0.564933 0.465699
671 3 0.402059 0.567655 0.446765
672 4 0.419742 0.580334 0.474215
673 1 0.428891 0.577943 0.430408
674 3 0.411903 0.561954 0.414865
675 4 0.444979 0.587986 0.42495
676 1 0.4302 0.533947 0.416864
677 3 0.402304 0.519539 0.413689
678 4 0.445784 0.521992 0.419579
679 1 0.390552 0.522642 0.438876
680 3 0.36027 0.525732 0.429987
681 4 0.390292 0.522691 0.453733
682 1 0.363051 0.558569 0.426273
683 3 0.344795 0.5531 0.407231
684 4 0.36766 0.576545 0.428184
685 1 0.373959 0.547423 0.390992
686 3 0.353562 0.528037 0.381103
687 4 0.39321 0.547656 0.384827
688 1 0.361442 0.503121 0.398146
689 3 0.33052 0.495347 0.394343
690 4 0.371205 0.492048 0.407877
691 1 0.316109 0.513985 0.413924
692 3 0.290558 0.516437 0.39943
693 4 0.313409 0.52247 0.427204
694 1 0.302911 0.543389 0.38663
695 3 0.28775 0.530771 0.368353
696 4 0.312346 0.559673 0.383416
697 1 0.317104 0.512722 0.360689
698 3 0.295194 0.492833 0.353427
699 4 0.336615 0.506652 0.35821
700 1 0.290913 0.478634 0.377487
701 3 0.259609 0.474955 0.371254
702 4 0.295044 0.471644 0.391158
703 1 0.248061 0.504445 0.380329
704 3 0.227159 0.503574 0.36214
705 4 0.245825 0.520104 0.388365
706 1 0.250896 0.515812 0.344156
707 3 0.238176 0.497664 0.328123
708 4 0.265485 0.526063 0.337717
709 1 0.258068 0.470933 0.336022
710 3 0.231004 0.455912 0.330122
711 4 0.273761 0.460106 0.340853
712 1 0.215529 0.457997 0.354339
713 3 0.186898 0.459444 0.342921
714 4 0.212871 0.458426 0.369451
715 1 0.188956 0.492232 0.338325
716 3 0.172718 0.485709 0.318362
717 4 0.192815 0.510515 0.339491
718 1 0.203218 0.47921 0.304102
719 3 0.184784 0.458499 0.293949
720 4 0.222646 0.480424 0.298369
721 1 0.192992 0.43449 0.311286
722 3 0.162901 0.424056 0.30716
723 4 0.203463 0.42343 0.320733
724 1 0.146472 0.443454 0.325163
725 3 0.120922 0.446532 0.310982
726 4 0.141864 0.451645 0.337992
727 1 0.135537 0.470872 0.296321
728 3 0.120431 0.458009 0.278308
729 4 0.145586 0.48642 0.292499
730 1 0.148667 0.437838 0.272497
731 3 0.128066 0.416318 0.266479
732 4 0.167946 0.431719 0.269752
733 1 0.121862 0.40581 0.291431
734 3 0.0906811 0.400721 0.285746
735 4 0.125544 0.400439 0.305455
736 1 0.0788465 0.431658 0.290264
737 3 0.0591178 0.432369 0.271791
738 4 0.0751789 0.44766 0.297762
739 1 0.0856228 0.439824 0.253994
740 3 0.0767878 0.423369 0.235951
741 4 0.101288 0.449242 0.24779
742 1 0.0844638 0.394026 0.247878
743 3 0.060195 0.374628 0.24731
744 4 0.101193 0.383076 0.249672
745 1 0.0463972 0.382586 0.271271
746 3 0.0171382 0.382892 0.260893
747 4 0.047856 0.382843 0.286217
748 1 0.0101711 0.41557 0.266587
749 3 0.000545368 0.437936 0.253719
750 4 0.00250869 0.423528 0.279102
751 1 0.0322312 0.441235 0.240116
752 3 0.0262322 0.469866 0.238303
753 5 0.0286318 0.441168 0.246286
754 1 0.038762 0.476708 0.263127
755 3 0.0700116 0.481196 0.256757
756 4 0.0389256 0.474881 0.277994
757 1 0.0651033 0.514561 0.252514
758 3 0.0896994 0.527093 0.264176
759 4 0.0569091 0.526075 0.242194
760 1 0.0676256 0.539539 0.283541
761 3 0.0824869 0.515297 0.292185
762 4 0.05121 0.548171 0.289833
763 1 0.0945531 0.531262 0.314461
764 3 0.0672984 0.518926 0.322654
765 4 0.100975 0.544787 0.323654
766 1 0.0842048 0.495187 0.337022
767 3 0.0852683 0.515898 0.353623
768 4 0.0988343 0.482484 0.340246
769 1 0.0549322 0.506689 0.366452
770 3 0.0627173 0.512317 0.388434
771 4 0.0355443 0.499614 0.367726
772 1 0.0889358 0.488799 0.390149
773 3 0.107806 0.504813 0.404438
774 5 0.078233 0.474411 0.4084
775 1 0.125925 0.5203 0.384014
776 3 0.110082 0.541856 0.372734
777 4 0.140446 0.517921 0.373577
778 1 0.11101 0.563045 0.393853
779 3 0.11874 0.588108 0.404428
780 4 0.0941305 0.562763 0.402556
781 1 0.155389 0.585484 0.399792
782 3 0.156289 0.596017 0.377712
783 4 0.173591 0.577036 0.402036
784 1 0.161415 0.627898 0.385151
785 3 0.18083 0.634569 0.366971
786 4 0.158947 0.643986 0.392687
787 1 0.21163 0.621718 0.37783
788 3 0.21992 0.614006 0.356024
789 4 0.226314 0.617096 0.387954
790 1 0.202441 0.584381 0.356612
791 3 0.193851 0.586833 0.334111
792 4 0.195855 0.56779 0.361248
793 1 0.16481 0.606943 0.338325
794 3 0.173372 0.619904 0.318156
795 4 0.147754 0.614692 0.344244
796 1 0.19666 0.641681 0.329691
797 3 0.215516 0.639511 0.310482
798 4 0.205222 0.653955 0.339089
799 1 0.234113 0.612583 0.319156
800 3 0.235353 0.602835 0.297105
801 4 0.244829 0.600996 0.327907
802 1 0.202331 0.587299 0.29785
803 3 0.194942 0.59473 0.27576
804 4 0.18717 0.576006 0.302642
805 1 0.183284 0.625409 0.281474
806 3 0.197873 0.632889 0.261246
807 4 0.173986 0.639842 0.288001
808 1 0.2308 0.639143 0.272742
809 3 0.245756 0.627972 0.253856
810 4 0.245484 0.645077 0.282316
811 1 0.243479 0.596115 0.262294
812 3 0.238558 0.588599 0.239744
813 4 0.243875 0.580874 0.270997
814 1 0.201718 0.593258 0.240254
815 3 0.202536 0.602982 0.218007
816 4 0.182003 0.592866 0.244909
817 1 0.212434 0.634348 0.224358
818 3 0.2311 0.634238 0.205159
819 4 0.213021 0.650816 0.231061
820 1 0.260686 0.620836 0.217311
821 3 0.267694 0.604809 0.19825
822 4 0.275493 0.617414 0.227396
823 1 0.243357 0.580469 0.203405
824 3 0.233854 0.577772 0.181021
825 4 0.234399 0.566466 0.211127
826 1 0.207567 0.601143 0.18202
827 3 0.213702 0.611578 0.160636
828 4 0.190674 0.610352 0.186744
829 1 0.241898 0.63127 0.168457
830 3 0.265144 0.627776 0.152267
831 4 0.248892 0.646144 0.175699
832 1 0.279187 0.599622 0.163243
833 3 0.258586 0.580126 0.153541
834 4 0.289372 0.591395 0.174494
835 1 0.281505 0.57207 0.13344
836 3 0.273502 0.544051 0.133372
837 4 0.292344 0.576778 0.121033
838 1 0.301138 0.532525 0.147729
839 3 0.282391 0.512317 0.158245
840 4 0.32084 0.531078 0.152904
841 1 0.266726 0.533825 0.175523
842 3 0.238217 0.519736 0.17369
843 4 0.264244 0.547337 0.185794
844 1 0.228127 0.53445 0.150513
845 3 0.216347 0.508896 0.142623
846 4 0.224187 0.547693 0.140526
847 1 0.249383 0.497738 0.133783
848 3 0.241489 0.470774 0.140947
849 4 0.267966 0.497407 0.127159
850 1 0.252355 0.475764 0.166252
851 3 0.226778 0.459591 0.173024
852 4 0.263563 0.481025 0.178365
853 1 0.2027 0.484899 0.173112
854 3 0.179712 0.466874 0.165184
855 4 0.194083 0.501833 0.175092
856 1 0.189529 0.468775 0.139487
857 3 0.182794 0.440192 0.137145
858 4 0.195419 0.475642 0.126316
859 1 0.215843 0.429684 0.145691
860 3 0.2015 0.407784 0.157157
861 4 0.236649 0.428053 0.147014
862 1 0.19366 0.42576 0.179012
863 3 0.164783 0.411732 0.180354
864 4 0.195133 0.437274 0.190537
865 1 0.147645 0.430812 0.162439
866 3 0.132511 0.406595 0.154727
867 4 0.141141 0.445919 0.154658
868 1 0.159656 0.3973 0.138252
869 3 0.153766 0.369428 0.143986
870 4 0.174749 0.397582 0.127913
871 1 0.173836 0.369907 0.166438
872 3 0.151789 0.352752 0.176905
873 4 0.189311 0.372886 0.176189
874 1 0.128134 0.377656 0.182922
875 3 0.102243 0.360943 0.178247
876 4 0.120894 0.394112 0.187577
877 1 0.103688 0.365272 0.151414
878 3 0.0979208 0.337609 0.144946
879 4 0.102406 0.375731 0.138958
880 1 0.133724 0.328535 0.144515
881 3 0.130425 0.302392 0.154207
882 4 0.152389 0.330202 0.137537
883 1 0.145913 0.311724 0.177963
884 3 0.146172 0.32607 0.198426
885 4 0.166392 0.309725 0.179972
886 1 0.110096 0.322686 0.203708
887 3 0.118072 0.320736 0.226357
888 4 0.0897948 0.321411 0.200523
889 1 0.119586 0.287384 0.226739
890 3 0.144236 0.287629 0.242067
891 4 0.113382 0.269641 0.224299
892 1 0.170905 0.28899 0.223681
893 3 0.188738 0.305397 0.238
894 5 0.15153 0.288567 0.242609
895 1 0.173059 0.334605 0.230297
896 3 0.175377 0.34293 0.252837
897 4 0.165096 0.34824 0.221682
898 1 0.143582 0.328621 0.260413
899 3 0.158293 0.322477 0.280719
900 4 0.123717 0.322808 0.260844
901 1 0.174613 0.294508 0.272252
902 3 0.200082 0.30189 0.285639
903 4 0.17809 0.278077 0.265597
904 1 0.216306 0.321055 0.267008
905 3 0.225769 0.338737 0.284482
906 4 0.223492 0.327505 0.253954
907 1 0.19426 0.3561 0.285599
908 3 0.198473 0.356431 0.308905
909 4 0.177599 0.366314 0.28117
910 1 0.18158 0.327333 0.313344
911 3 0.203177 0.323728 0.330573
912 4 0.168628 0.312852 0.312717
913 1 0.230022 0.31176 0.314834
914 3 0.251565 0.326242 0.327888
915 4 0.239853 0.301951 0.304171