ITEM: TIMESTEP
0
ITEM: NUMBER OF ATOMS
8634
ITEM: BOX BOUNDS ss ss ss
36.03 187.71
34.23 181
-1.98 124.26
ITEM: ATOMS id type xs ys zs
1 1 0.402228 0.844655 0.827947
2 3 0.388911 0.852831 0.824224
3 4 0.401239 0.838659 0.837928
4 1 0.381131 0.838046 0.814005
5 3 0.37467 0.836206 0.831274
6 4 0.379615 0.828303 0.809015
7 1 0.358122 0.842475 0.82565
8 3 0.351266 0.834367 0.811629
9 4 0.354562 0.85215 0.827709
10 1 0.339465 0.824215 0.823669
11 3 0.333597 0.822103 0.806717
12 4 0.334784 0.820127 0.833096
13 1 0.323312 0.837365 0.806955
14 3 0.32562 0.839272 0.788894
15 4 0.316126 0.844451 0.811074
16 1 0.341113 0.850106 0.79032
17 3 0.346057 0.844246 0.774794
18 4 0.347706 0.856783 0.79436
19 1 0.352255 0.827621 0.784617
20 3 0.348299 0.822034 0.76719
21 4 0.354364 0.819377 0.792538
22 1 0.330894 0.81672 0.774398
23 3 0.326741 0.818492 0.756416
24 4 0.322917 0.814063 0.78129
25 1 0.325026 0.838387 0.756971
26 3 0.330301 0.836615 0.738752
27 4 0.324103 0.84813 0.761407
28 1 0.348497 0.839136 0.744772
29 3 0.352584 0.830279 0.729484
30 4 0.356408 0.840158 0.75206
31 1 0.348101 0.813313 0.74192
32 3 0.343091 0.806432 0.726473
33 4 0.348826 0.806432 0.75103
34 1 0.326213 0.814403 0.728454
35 3 0.324367 0.817197 0.709918
36 4 0.31784 0.817674 0.734712
37 1 0.332147 0.834094 0.709838
38 3 0.337289 0.827485 0.69352
39 4 0.335179 0.844042 0.713086
40 1 0.352453 0.820127 0.701442
41 3 0.349684 0.808953 0.688609
42 4 0.360562 0.817333 0.708016
43 1 0.337816 0.798937 0.700254
44 3 0.331817 0.796416 0.682193
45 4 0.332213 0.794713 0.709205
46 1 0.321532 0.81161 0.681559
47 3 0.325026 0.812632 0.663023
48 4 0.316522 0.81965 0.685757
49 1 0.34052 0.821898 0.665716
50 3 0.345134 0.813177 0.650903
51 4 0.346519 0.830006 0.668806
52 1 0.352321 0.799278 0.661597
53 3 0.346651 0.791442 0.646784
54 4 0.357859 0.793078 0.66936
55 1 0.329444 0.788513 0.65423
56 3 0.323642 0.789943 0.635852
57 4 0.3214 0.7864 0.661518
58 1 0.325092 0.808953 0.636248
59 3 0.330564 0.80834 0.618663
60 4 0.323774 0.818968 0.639417
61 1 0.348629 0.806636 0.624921
62 3 0.35087 0.795939 0.610741
63 4 0.357199 0.80834 0.630941
64 1 0.342563 0.780609 0.621356
65 3 0.336828 0.777884 0.604325
66 4 0.340849 0.773591 0.63007
67 1 0.321796 0.788853 0.606385
68 3 0.323312 0.790829 0.587373
69 4 0.315137 0.795735 0.611613
70 1 0.336696 0.802889 0.588007
71 3 0.340256 0.794508 0.571847
72 5 0.331619 0.7444 0.546952
73 1 0.352057 0.783198 0.583809
74 3 0.348365 0.771615 0.570501
75 4 0.358386 0.779042 0.591809
76 1 0.332938 0.766778 0.580244
77 3 0.330301 0.765075 0.562183
78 4 0.326081 0.762826 0.587849
79 1 0.323049 0.782653 0.559173
80 3 0.327861 0.779655 0.541508
81 4 0.318829 0.791919 0.562896
82 1 0.345398 0.786673 0.544677
83 3 0.348826 0.776385 0.529626
84 4 0.353969 0.789807 0.549588
85 1 0.347376 0.760101 0.541587
86 3 0.341113 0.751243 0.5282
87 4 0.350211 0.754991 0.551727
88 1 0.323972 0.753969 0.533825
89 3 0.319422 0.754514 0.515526
90 4 0.315599 0.753764 0.540954
91 1 0.319357 0.774 0.516001
92 3 0.333729 0.77107 0.507842
93 4 0.317642 0.784152 0.52012
94 1 0.327795 0.777066 0.487088
95 3 0.329246 0.793146 0.4859
96 4 0.321796 0.774681 0.47782
97 1 0.346915 0.792533 0.478612
98 3 0.338871 0.794508 0.462294
99 4 0.35687 0.789535 0.477899
100 1 0.347244 0.811269 0.457383
101 3 0.35331 0.809839 0.439956
102 4 0.348958 0.821694 0.459046
103 1 0.368407 0.800095 0.44558
104 3 0.368407 0.784356 0.450174
105 4 0.377242 0.803979 0.450412
106 1 0.372099 0.77877 0.429103
107 3 0.377637 0.765006 0.436866
108 4 0.373484 0.778361 0.416587
109 1 0.393921 0.771547 0.442491
110 3 0.393658 0.761259 0.457224
111 4 0.40302 0.77618 0.442174
112 1 0.383439 0.772433 0.469978
113 3 0.373747 0.760101 0.476236
114 4 0.380274 0.781563 0.474968
115 1 0.363133 0.759692 0.458492
116 3 0.361748 0.743612 0.458413
117 4 0.356145 0.762349 0.450174
118 1 0.375066 0.739933 0.443837
119 3 0.381263 0.728282 0.454848
120 4 0.38067 0.740887 0.433856
121 1 0.390229 0.74225 0.467918
122 3 0.403942 0.734891 0.471641
123 4 0.385285 0.737072 0.476394
124 1 0.411854 0.741092 0.453818
125 3 0.425567 0.746883 0.460631
126 4 0.413238 0.741909 0.441857
127 1 0.417128 0.760714 0.472117
128 3 0.403481 0.765211 0.480672
129 4 0.419897 0.770593 0.468235
130 1 0.406052 0.755127 0.497782
131 3 0.40592 0.758261 0.516318
132 4 0.403349 0.744907 0.498574
133 1 0.422139 0.768345 0.515684
134 3 0.418051 0.773455 0.533112
135 4 0.430775 0.773183 0.511565
136 1 0.407305 0.78824 0.524953
137 3 0.398273 0.78531 0.540162
138 4 0.403877 0.795667 0.51719
139 1 0.389834 0.770662 0.531765
140 3 0.391086 0.764053 0.548954
141 4 0.384889 0.763439 0.524319
142 1 0.407173 0.755672 0.545707
143 3 0.411392 0.758329 0.563926
144 4 0.415414 0.750221 0.540795
145 1 0.413173 0.77693 0.5625
146 3 0.405327 0.776385 0.578581
147 4 0.415414 0.787218 0.557985
148 1 0.388977 0.777884 0.570818
149 3 0.384626 0.768686 0.585155
150 4 0.380934 0.780337 0.563767
151 1 0.388779 0.752061 0.575808
152 3 0.392669 0.748382 0.592998
153 4 0.390098 0.743885 0.567887
154 1 0.410403 0.754309 0.591176
155 3 0.409612 0.756422 0.610266
156 4 0.418447 0.758397 0.586185
157 1 0.400382 0.773251 0.608682
158 3 0.392207 0.767391 0.623733
159 4 0.398471 0.782926 0.603375
160 1 0.378626 0.759828 0.612643
161 3 0.376318 0.750835 0.628089
162 4 0.372693 0.757375 0.603454
163 1 0.38812 0.737889 0.622069
164 3 0.392207 0.735096 0.640605
165 4 0.393724 0.731417 0.615019
166 1 0.401701 0.751652 0.642348
167 3 0.39313 0.753696 0.65827
168 4 0.408953 0.759283 0.639734
169 1 0.380999 0.76562 0.649636
170 3 0.370781 0.762009 0.662864
171 5 0.387922 0.710078 0.611856
172 1 0.366363 0.74443 0.654151
173 3 0.365506 0.73932 0.671974
174 4 0.365309 0.735777 0.647338
175 1 0.382845 0.737412 0.674747
176 3 0.383439 0.743612 0.692649
177 4 0.391284 0.733188 0.673004
178 1 0.381263 0.761055 0.686946
179 3 0.371374 0.763235 0.701759
180 4 0.383834 0.770048 0.680925
181 1 0.356276 0.759624 0.688292
182 3 0.348892 0.760237 0.705086
183 4 0.350738 0.75649 0.677836
184 1 0.353507 0.743408 0.712136
185 3 0.356079 0.748177 0.729563
186 4 0.355156 0.732779 0.710235
187 1 0.371638 0.755877 0.728771
188 3 0.365506 0.766369 0.74089
189 4 0.381329 0.758261 0.726077
190 1 0.358386 0.777747 0.725206
191 3 0.348233 0.780541 0.738672
192 4 0.355947 0.782721 0.714908
193 1 0.336696 0.765415 0.735029
194 3 0.334784 0.764598 0.754594
195 4 0.331883 0.757375 0.729246
196 1 0.349881 0.75356 0.757446
197 3 0.351727 0.761123 0.773844
198 4 0.356672 0.746202 0.754991
199 1 0.358518 0.777271 0.765368
200 3 0.350079 0.784356 0.779388
201 4 0.363397 0.784152 0.758476
202 1 0.334322 0.784425 0.770437
203 3 0.32885 0.781904 0.78834
204 4 0.326213 0.784697 0.76212
205 1 0.332344 0.763099 0.788419
206 3 0.336366 0.766301 0.806163
207 4 0.332344 0.752811 0.784379
208 1 0.353903 0.762349 0.804262
209 3 0.358979 0.777884 0.802202
210 4 0.36188 0.756081 0.801727
211 1 0.3661 0.779042 0.822402
212 3 0.380868 0.782381 0.81852
213 5 0.359902 0.722573 0.776014
214 1 0.387526 0.764938 0.8186
215 3 0.38634 0.764938 0.799667
216 4 0.389966 0.754855 0.822164
217 1 0.403151 0.77107 0.796657
218 3 0.410667 0.756899 0.794598
219 4 0.410074 0.778565 0.796657
220 1 0.407832 0.753696 0.774952
221 3 0.403547 0.738775 0.780814
222 4 0.410733 0.754991 0.763546
223 1 0.38779 0.737344 0.769645
224 3 0.386274 0.725489 0.756496
225 4 0.37889 0.740955 0.766635
226 1 0.403217 0.722832 0.752456
227 3 0.416601 0.727124 0.760219
228 4 0.405393 0.727805 0.741683
229 1 0.423259 0.710022 0.764496
230 3 0.431105 0.717449 0.750159
231 4 0.423655 0.699939 0.76315
232 1 0.445741 0.722559 0.763466
233 3 0.45385 0.725693 0.74794
234 4 0.450752 0.725966 0.773131
235 1 0.45952 0.70791 0.744693
236 3 0.457344 0.712748 0.726553
237 4 0.461564 0.697895 0.747069
238 1 0.43928 0.708115 0.725602
239 3 0.438423 0.720719 0.712849
240 4 0.430314 0.703141 0.728375
241 1 0.434401 0.733597 0.728691
242 3 0.441258 0.744294 0.717681
243 4 0.430248 0.738434 0.738672
244 1 0.458399 0.739865 0.724414
245 3 0.462091 0.744226 0.706353
246 4 0.466377 0.734891 0.730909
247 1 0.458993 0.727328 0.697956
248 3 0.453652 0.736799 0.68346
249 4 0.458927 0.716972 0.69653
250 1 0.43572 0.737344 0.691698
251 3 0.434401 0.75172 0.682351
252 4 0.427215 0.735368 0.698432
253 1 0.443829 0.761532 0.696134
254 3 0.452598 0.770117 0.68346
255 4 0.44495 0.766437 0.706432
256 1 0.466047 0.757444 0.681638
257 3 0.466772 0.762349 0.662785
258 4 0.472376 0.749404 0.684569
259 1 0.453191 0.751584 0.655894
260 3 0.450817 0.762962 0.642586
261 4 0.445543 0.744703 0.656607
262 1 0.441785 0.775499 0.656844
263 3 0.447851 0.78824 0.646863
264 4 0.437434 0.778361 0.6673
265 1 0.464465 0.787082 0.657478
266 3 0.471057 0.789194 0.640764
267 4 0.470398 0.786741 0.666588
268 1 0.473233 0.77073 0.635694
269 3 0.471057 0.775363 0.617554
270 4 0.475475 0.76051 0.637437
271 1 0.453586 0.778633 0.61898
272 3 0.456158 0.792124 0.609395
273 4 0.443829 0.775635 0.621277
274 1 0.456685 0.804183 0.625475
275 3 0.466443 0.812564 0.613672
276 4 0.455432 0.809225 0.636328
277 1 0.482068 0.801799 0.618267
278 3 0.485298 0.805137 0.60084
279 4 0.488331 0.794917 0.624683
280 1 0.477584 0.790284 0.592047
281 3 0.476134 0.80064 0.577947
282 4 0.47231 0.78095 0.589908
283 1 0.461102 0.809975 0.586185
284 3 0.467563 0.821966 0.575333
285 4 0.452729 0.812155 0.592601
286 1 0.478837 0.827076 0.591889
287 3 0.487408 0.831233 0.576204
288 4 0.482793 0.828303 0.603295
289 1 0.495978 0.813654 0.574699
290 3 0.496374 0.817061 0.556638
291 4 0.499802 0.804524 0.579848
292 1 0.479826 0.811269 0.550856
293 3 0.47976 0.825169 0.53929
294 4 0.470728 0.806091 0.549905
295 1 0.475475 0.837433 0.554103
296 3 0.4851 0.847448 0.544122
297 4 0.470728 0.842134 0.563055
298 1 0.500132 0.84336 0.554895
299 3 0.506197 0.846018 0.537152
300 4 0.506263 0.840294 0.563847
301 1 0.503626 0.826804 0.530577
302 3 0.504219 0.833413 0.513704
303 4 0.501319 0.816788 0.531131
304 1 0.485166 0.834571 0.511486
305 3 0.48754 0.848675 0.501743
306 4 0.475211 0.833208 0.513863
307 1 0.489715 0.859644 0.519091
308 3 0.499077 0.868706 0.506416
309 4 0.48932 0.864754 0.529468
310 1 0.513318 0.857941 0.508714
311 3 0.516614 0.85726 0.490494
312 4 0.521031 0.853512 0.515368
313 1 0.507318 0.840635 0.486534
314 3 0.507054 0.846699 0.46871
315 4 0.500725 0.832391 0.488356
316 1 0.491693 0.857532 0.472275
317 3 0.50033 0.868979 0.462611
318 4 0.483254 0.861484 0.476869
319 1 0.508637 0.87695 0.479484
320 3 0.519844 0.881311 0.466572
321 4 0.51134 0.879267 0.49089
322 1 0.52914 0.865368 0.467522
323 3 0.533162 0.86346 0.448511
324 4 0.535535 0.859099 0.473542
325 1 0.516416 0.855284 0.442728
326 3 0.517998 0.859576 0.424509
327 4 0.507648 0.85031 0.444471
328 1 0.513252 0.877904 0.427915
329 3 0.521888 0.889146 0.420469
330 4 0.505406 0.884718 0.430292
331 1 0.53659 0.886762 0.434331
332 3 0.541007 0.878654 0.418726
333 4 0.542985 0.884377 0.443837
334 1 0.552413 0.89303 0.41231
335 3 0.551094 0.882946 0.396863
336 4 0.561181 0.888261 0.413973
337 1 0.538436 0.892621 0.386407
338 3 0.52947 0.881175 0.379198
339 4 0.535008 0.901751 0.381971
340 1 0.522877 0.874089 0.398606
341 3 0.528217 0.862165 0.387833
342 4 0.513515 0.875383 0.393932
343 1 0.529074 0.849424 0.403438
344 3 0.513977 0.844451 0.402883
345 4 0.533096 0.845268 0.41334
346 1 0.516086 0.833004 0.385694
347 3 0.527954 0.822716 0.379436
348 4 0.511076 0.838591 0.376584
349 1 0.51701 0.808612 0.374129
350 3 0.501516 0.806773 0.37294
351 4 0.519778 0.800913 0.381971
352 1 0.501714 0.798665 0.353058
353 3 0.491166 0.787422 0.356306
354 4 0.504351 0.797779 0.341492
355 1 0.503165 0.776794 0.369693
356 3 0.499604 0.78606 0.384823
357 4 0.511669 0.771343 0.372069
358 1 0.485957 0.774477 0.391635
359 3 0.484243 0.757512 0.393774
360 4 0.476595 0.776521 0.387754
361 1 0.489649 0.757648 0.414686
362 3 0.485759 0.763848 0.431876
363 4 0.499275 0.756422 0.418726
364 1 0.472969 0.751584 0.436233
365 3 0.477848 0.74845 0.454848
366 4 0.464399 0.74627 0.434886
367 1 0.49255 0.737753 0.449303
368 3 0.500659 0.745248 0.463403
369 4 0.498022 0.729645 0.445025
370 1 0.505538 0.759692 0.451679
371 3 0.504879 0.770389 0.466255
372 4 0.509691 0.766505 0.443441
373 1 0.486419 0.76998 0.467047
374 3 0.484968 0.767936 0.486138
375 4 0.477716 0.772569 0.461106
376 1 0.482727 0.75029 0.485345
377 3 0.489847 0.749063 0.501822
378 4 0.479035 0.740751 0.482256
379 1 0.507714 0.749881 0.491762
380 3 0.512658 0.757444 0.507684
381 4 0.514636 0.748859 0.483761
382 1 0.503626 0.773591 0.50404
383 3 0.502835 0.773183 0.523764
384 4 0.499604 0.782244 0.49897
385 1 0.48721 0.763439 0.524081
386 3 0.492418 0.757512 0.540478
387 4 0.478376 0.759011 0.5202
388 1 0.504285 0.745043 0.530339
389 3 0.514109 0.747769 0.544202
390 4 0.507516 0.738298 0.521705
391 1 0.522284 0.763371 0.534617
392 3 0.524921 0.769095 0.551648
393 4 0.525448 0.770457 0.526458
394 1 0.507845 0.77802 0.552994
395 3 0.506527 0.774681 0.571372
396 4 0.499209 0.784016 0.550222
397 1 0.501055 0.756626 0.568203
398 3 0.508703 0.752197 0.583096
399 4 0.495055 0.748927 0.563926
400 1 0.526174 0.750562 0.572639
401 3 0.530129 0.756626 0.589591
402 4 0.533294 0.74954 0.563847
403 1 0.529668 0.774273 0.585631
404 3 0.524789 0.777271 0.603771
405 4 0.53092 0.783948 0.580957
406 1 0.507054 0.773046 0.601394
407 3 0.50956 0.7678 0.619059
408 4 0.497495 0.770934 0.597513
409 1 0.516416 0.750358 0.613831
410 3 0.527888 0.753083 0.627773
411 4 0.515955 0.740274 0.610345
412 1 0.539623 0.76194 0.615811
413 3 0.545161 0.768686 0.631496
414 5 0.531316 0.698083 0.576203
415 1 0.533623 0.783948 0.63007
416 3 0.528613 0.787082 0.647655
417 4 0.531316 0.792941 0.623891
418 1 0.514834 0.774886 0.647814
419 3 0.517867 0.769435 0.665003
420 4 0.505011 0.772569 0.644804
421 1 0.52802 0.754309 0.658904
422 3 0.534744 0.752674 0.676965
423 4 0.531909 0.745929 0.652408
424 1 0.544238 0.768822 0.675935
425 3 0.541007 0.76964 0.694629
426 4 0.547666 0.777475 0.670548
427 1 0.523932 0.775431 0.692015
428 3 0.520899 0.769231 0.708967
429 4 0.516086 0.781359 0.687975
430 1 0.514834 0.752197 0.702392
431 3 0.521756 0.746406 0.717918
432 4 0.511208 0.744771 0.694471
433 1 0.538041 0.745111 0.708254
434 3 0.543974 0.749063 0.725761
435 4 0.545688 0.744703 0.70057
436 1 0.540744 0.767187 0.723939
437 3 0.536986 0.766642 0.742475
438 4 0.539425 0.777134 0.719661
439 1 0.520965 0.758738 0.740574
440 3 0.524591 0.750085 0.756258
441 5 0.526569 0.698038 0.699197
442 1 0.531646 0.735028 0.745089
443 3 0.540546 0.732643 0.760456
444 4 0.533228 0.728282 0.735979
445 1 0.553534 0.745452 0.754991
446 3 0.555973 0.747496 0.773844
447 4 0.559335 0.75247 0.748891
448 1 0.542524 0.759624 0.776458
449 3 0.527558 0.763848 0.773289
450 4 0.546282 0.769367 0.774794
451 1 0.520899 0.755468 0.791667
452 3 0.508175 0.764938 0.794043
453 4 0.520306 0.74954 0.801489
454 1 0.517603 0.781427 0.792934
455 3 0.513054 0.793759 0.782161
456 4 0.523668 0.786877 0.801172
457 1 0.51846 0.785924 0.764259
458 3 0.510944 0.772842 0.755703
459 4 0.527162 0.786673 0.757921
460 1 0.500132 0.783403 0.742158
461 3 0.484573 0.781699 0.74501
462 4 0.504615 0.777747 0.733365
463 1 0.485759 0.76453 0.754911
464 3 0.478376 0.763576 0.771626
465 4 0.487342 0.753969 0.753723
466 1 0.490045 0.776725 0.781923
467 3 0.478507 0.773183 0.794439
468 4 0.487803 0.786741 0.782953
469 1 0.486221 0.75758 0.801885
470 3 0.473827 0.748995 0.806876
471 4 0.485298 0.762349 0.812579
472 1 0.469409 0.743408 0.787072
473 3 0.453521 0.746474 0.785646
474 5 0.477189 0.672675 0.737639
475 1 0.456619 0.763508 0.776378
476 3 0.461828 0.763916 0.757921
477 4 0.459718 0.772774 0.780973
478 1 0.444884 0.768004 0.750396
479 3 0.440269 0.779792 0.738276
480 4 0.436116 0.76269 0.748574
481 1 0.445477 0.794304 0.750713
482 3 0.446203 0.798801 0.732177
483 4 0.449103 0.800368 0.759427
484 1 0.464399 0.7941 0.729721
485 3 0.471453 0.808748 0.72687
486 4 0.467695 0.784152 0.726632
487 1 0.485694 0.804047 0.740574
488 3 0.476398 0.814608 0.749208
489 4 0.49255 0.806159 0.732098
490 1 0.491297 0.825646 0.756971
491 3 0.492352 0.835593 0.741366
492 4 0.500791 0.827213 0.76212
493 1 0.480551 0.84847 0.747703
494 3 0.48754 0.858759 0.734949
495 4 0.473629 0.853717 0.754198
496 1 0.502505 0.862029 0.74699
497 3 0.510021 0.862233 0.731306
498 4 0.508175 0.864823 0.756733
499 1 0.511999 0.842747 0.730989
500 3 0.510153 0.844723 0.712215
501 4 0.512988 0.833004 0.735187
502 1 0.492023 0.843428 0.712373
503 3 0.492221 0.853172 0.697085
504 4 0.482595 0.84118 0.715225
505 1 0.492946 0.868979 0.710393
506 3 0.499868 0.876201 0.694946
507 4 0.493078 0.876065 0.71974
508 1 0.515625 0.867275 0.697323
509 3 0.516746 0.867139 0.677757
510 4 0.524393 0.865436 0.703105
511 1 0.506725 0.851809 0.675222
512 3 0.498418 0.858418 0.660726
513 5 0.50956 0.77592 0.626912
514 1 0.48688 0.86857 0.672845
515 3 0.488397 0.879471 0.658745
516 4 0.480485 0.8715 0.682113
517 1 0.502967 0.888056 0.666588
518 3 0.505076 0.89085 0.648447
519 4 0.51134 0.890645 0.673004
520 1 0.513318 0.873952 0.644011
521 3 0.506329 0.872726 0.627139
522 4 0.520306 0.866458 0.644804
523 1 0.491034 0.865572 0.635298
524 3 0.483584 0.874702 0.621911
525 4 0.484177 0.860734 0.642506
526 1 0.484705 0.890168 0.634268
527 3 0.487671 0.897731 0.617554
528 4 0.484309 0.896164 0.644724
529 1 0.506329 0.89814 0.619851
530 3 0.506395 0.897799 0.600998
531 4 0.515098 0.896573 0.626664
532 1 0.510549 0.880153 0.598543
533 3 0.50178 0.883355 0.583096
534 4 0.517669 0.872726 0.600206
535 1 0.49044 0.869047 0.584997
536 3 0.479364 0.878517 0.576521
537 4 0.486353 0.859917 0.588799
538 1 0.472772 0.885195 0.596087
539 3 0.469014 0.900116 0.596404
540 4 0.467497 0.882742 0.606464
541 1 0.485891 0.907474 0.590463
542 3 0.485694 0.907747 0.572481
543 4 0.491166 0.913606 0.59783
544 1 0.503494 0.903727 0.570818
545 3 0.499868 0.90216 0.551568
546 4 0.512988 0.901751 0.573432
547 1 0.494726 0.884445 0.55244
548 3 0.48543 0.887852 0.53731
549 4 0.493275 0.874702 0.556876
550 1 0.471321 0.89412 0.549509
551 3 0.468486 0.903863 0.535488
552 4 0.464201 0.894188 0.558302
553 1 0.480419 0.916877 0.541904
554 3 0.483254 0.91933 0.522814
555 4 0.485562 0.922873 0.54943
556 1 0.495847 0.905703 0.522259
557 3 0.488858 0.904613 0.504594
558 4 0.502571 0.898481 0.524794
559 1 0.476266 0.892076 0.510615
560 3 0.466838 0.899162 0.497703
561 4 0.471255 0.884173 0.516556
562 1 0.462685 0.914288 0.508634
563 3 0.463542 0.921033 0.491366
564 4 0.45985 0.921578 0.516873
565 1 0.481474 0.92587 0.493346
566 3 0.483386 0.924576 0.474335
567 4 0.490506 0.9288 0.497544
568 1 0.482134 0.905839 0.474889
569 3 0.473431 0.907202 0.459522
570 4 0.482595 0.895551 0.47885
571 1 0.456751 0.906452 0.469186
572 3 0.450817 0.915855 0.455086
573 4 0.449037 0.905294 0.477107
574 1 0.460575 0.931594 0.463245
575 3 0.466838 0.939361 0.448273
576 4 0.464135 0.937998 0.471245
577 1 0.478441 0.926075 0.442411
578 3 0.486748 0.914015 0.432906
579 4 0.487869 0.927574 0.447956
580 1 0.472706 0.905771 0.424667
581 3 0.466574 0.908156 0.407003
582 4 0.463805 0.900388 0.425935
583 1 0.480947 0.917831 0.399556
584 3 0.482068 0.905158 0.386961
585 4 0.490506 0.921782 0.399477
586 1 0.468816 0.911835 0.373099
587 3 0.476859 0.919943 0.359632
588 4 0.459388 0.915037 0.371119
589 1 0.480683 0.904204 0.347275
590 3 0.495121 0.909314 0.341492
591 4 0.477255 0.909927 0.338007
592 1 0.503099 0.905498 0.360345
593 3 0.517537 0.899366 0.360187
594 4 0.502505 0.906997 0.372307
595 1 0.51279 0.882129 0.35385
596 3 0.517669 0.884581 0.335631
597 4 0.507648 0.872794 0.354642
598 1 0.534415 0.878586 0.340225
599 3 0.543842 0.867889 0.332066
600 4 0.542194 0.883151 0.345928
601 1 0.531646 0.853172 0.333096
602 3 0.532503 0.858214 0.31448
603 4 0.522547 0.848402 0.33468
604 1 0.541469 0.84336 0.307113
605 3 0.527558 0.839 0.299667
606 4 0.547468 0.834503 0.305292
607 1 0.527954 0.852695 0.283666
608 3 0.538964 0.856033 0.270358
609 4 0.525514 0.862438 0.288102
610 1 0.526239 0.853035 0.254278
611 3 0.520438 0.868025 0.255783
612 4 0.518921 0.848811 0.247544
613 1 0.535206 0.875247 0.242712
614 3 0.538766 0.876678 0.26109
615 4 0.528811 0.881447 0.23693
616 1 0.549117 0.892894 0.256416
617 3 0.535404 0.899026 0.261169
618 5 0.545293 0.824065 0.2437
619 1 0.54404 0.90618 0.28129
620 3 0.531777 0.896164 0.283349
621 4 0.538238 0.914833 0.279468
622 1 0.538766 0.887988 0.30244
623 3 0.523405 0.884036 0.305529
624 4 0.544765 0.885876 0.311866
625 1 0.519053 0.900661 0.313213
626 3 0.513713 0.908905 0.297608
627 4 0.519383 0.908633 0.320897
628 1 0.498286 0.898412 0.29634
629 3 0.485759 0.897663 0.308064
630 4 0.49789 0.889078 0.290399
631 1 0.477914 0.914015 0.299034
632 3 0.470069 0.913334 0.282795
633 4 0.480749 0.923895 0.29737
634 1 0.458136 0.901002 0.290478
635 3 0.445675 0.89119 0.291746
636 4 0.463674 0.892144 0.287944
637 1 0.439807 0.897663 0.310916
638 3 0.42438 0.89739 0.309886
639 4 0.440401 0.90107 0.322243
640 1 0.423259 0.913879 0.297449
641 3 0.433149 0.915242 0.282003
642 4 0.421348 0.923486 0.302836
643 1 0.417392 0.92076 0.269407
644 3 0.429061 0.932275 0.269962
645 4 0.408426 0.926415 0.267823
646 1 0.434467 0.928596 0.249049
647 3 0.429457 0.919125 0.234632
648 4 0.443895 0.926279 0.254198
649 1 0.440467 0.926961 0.219661
650 3 0.449169 0.914015 0.220453
651 4 0.44673 0.933638 0.214037
652 1 0.428863 0.913947 0.206195
653 3 0.437038 0.923009 0.194154
654 4 0.425567 0.903931 0.205482
655 1 0.425303 0.923009 0.177677
656 3 0.421216 0.937726 0.185282
657 4 0.418776 0.91967 0.168885
658 1 0.429655 0.948218 0.170944
659 3 0.416733 0.946992 0.159617
660 4 0.437698 0.950126 0.163973
661 1 0.412184 0.965115 0.163023
662 3 0.409415 0.977311 0.150428
663 4 0.408228 0.971043 0.171578
664 1 0.426556 0.979696 0.144724
665 3 0.419304 0.973496 0.128644
666 4 0.437038 0.980582 0.144645
667 1 0.418974 0.989644 0.118584
668 3 0.419436 0.98467 0.100602
669 4 0.417853 0.999727 0.118108
670 1 0.436511 0.979832 0.0999683
671 3 0.448378 0.975199 0.112484
672 4 0.44106 0.986578 0.0925222
673 1 0.450422 0.958507 0.10488
674 3 0.45029 0.952238 0.0872148
675 4 0.443631 0.953056 0.111375
676 1 0.465519 0.941882 0.0903834
677 3 0.459322 0.930299 0.0796895
678 4 0.475211 0.939974 0.0929183
679 1 0.449697 0.920692 0.0963245
680 3 0.454312 0.906316 0.0875317
681 4 0.441654 0.921442 0.0884823
682 1 0.468289 0.902841 0.10076
683 3 0.45807 0.895687 0.113514
684 4 0.478112 0.904885 0.104246
685 1 0.464003 0.878586 0.111613
686 3 0.478178 0.874225 0.118901
687 4 0.462487 0.870001 0.104325
688 1 0.473695 0.875179 0.139892
689 3 0.465322 0.862915 0.144804
690 4 0.47198 0.882946 0.147972
691 1 0.479035 0.851128 0.15019
692 3 0.492946 0.851332 0.159062
693 4 0.480156 0.844723 0.140684
694 1 0.47409 0.841589 0.171499
695 3 0.470398 0.856442 0.177281
696 4 0.475277 0.836138 0.181401
697 1 0.452861 0.855897 0.170073
698 3 0.448378 0.851128 0.187025
699 4 0.445477 0.853785 0.162151
700 1 0.443302 0.868229 0.194233
701 3 0.43183 0.877291 0.1875
702 4 0.447719 0.876201 0.200729
703 1 0.41937 0.868434 0.201917
704 3 0.425171 0.872862 0.218552
705 4 0.412975 0.860189 0.202471
706 1 0.412052 0.884377 0.224018
707 3 0.404668 0.871091 0.23083
708 4 0.405261 0.892076 0.220849
709 1 0.410206 0.874702 0.252297
710 3 0.394844 0.878177 0.248812
711 5 0.412843 0.798552 0.244677
712 1 0.390163 0.870137 0.269011
713 3 0.382186 0.878449 0.282003
714 4 0.38957 0.861348 0.276537
715 1 0.390032 0.895142 0.278438
716 3 0.377967 0.899026 0.267982
717 4 0.39735 0.902705 0.27519
718 1 0.368078 0.906452 0.285963
719 3 0.374143 0.909655 0.303232
720 4 0.360759 0.899434 0.286201
721 1 0.361814 0.925121 0.306321
722 3 0.375923 0.932139 0.305529
723 5 0.362671 0.854097 0.293377
724 1 0.374539 0.94011 0.324145
725 3 0.380472 0.926211 0.330482
726 4 0.371967 0.944675 0.334601
727 1 0.398141 0.933365 0.331591
728 3 0.403217 0.937249 0.349651
729 4 0.405854 0.939225 0.326996
730 1 0.393328 0.923349 0.35892
731 3 0.403217 0.910949 0.354721
732 4 0.384626 0.918648 0.362247
733 1 0.411392 0.911494 0.374049
734 3 0.401437 0.89923 0.377852
735 4 0.416271 0.915173 0.383951
736 1 0.414425 0.886353 0.37096
737 3 0.426622 0.883559 0.381416
738 4 0.417392 0.884854 0.359632
739 1 0.420886 0.866253 0.387278
740 3 0.40803 0.856238 0.384823
741 4 0.419699 0.869387 0.398685
742 1 0.416865 0.840294 0.3891
743 3 0.416205 0.828235 0.402012
744 4 0.420227 0.83423 0.380228
745 1 0.420754 0.838932 0.418409
746 3 0.421018 0.844996 0.435678
747 4 0.430446 0.836547 0.42039
748 1 0.407107 0.858282 0.432113
749 3 0.410799 0.868911 0.445342
750 4 0.401503 0.853035 0.440273
751 1 0.424776 0.87695 0.433143
752 3 0.420886 0.890918 0.441461
753 4 0.432423 0.877632 0.424826
754 1 0.408755 0.895892 0.426568
755 3 0.40025 0.904408 0.43956
756 4 0.404997 0.897459 0.415637
757 1 0.392339 0.888737 0.448273
758 3 0.394251 0.89705 0.463799
759 4 0.388186 0.879062 0.449065
760 1 0.412447 0.890305 0.467997
761 3 0.414293 0.904953 0.47584
762 4 0.420886 0.884786 0.466651
763 1 0.416601 0.914424 0.456511
764 3 0.41014 0.925802 0.466889
765 4 0.419765 0.916059 0.445342
766 1 0.392735 0.922327 0.461185
767 3 0.386603 0.926824 0.477979
768 4 0.384296 0.920147 0.455006
769 1 0.392339 0.912789 0.489544
770 3 0.399262 0.913266 0.505624
771 4 0.388515 0.903454 0.492554
772 1 0.415414 0.920488 0.498416
773 3 0.416073 0.92771 0.515051
774 4 0.423721 0.921782 0.491207
775 1 0.407964 0.943449 0.510139
776 3 0.404008 0.943449 0.528834
777 5 0.409546 0.877682 0.479514
778 1 0.391086 0.929618 0.526616
779 3 0.396624 0.923826 0.543251
780 4 0.383505 0.923963 0.521863
781 1 0.408228 0.91163 0.53327
782 3 0.416139 0.913538 0.549192
783 4 0.412579 0.904545 0.526378
784 1 0.423721 0.930435 0.54238
785 3 0.422007 0.934319 0.560678
786 4 0.427215 0.937998 0.534458
787 1 0.405723 0.942086 0.558619
788 3 0.40447 0.93793 0.576759
789 4 0.396559 0.94488 0.553549
790 1 0.399723 0.920215 0.573115
791 3 0.407239 0.917626 0.589433
792 4 0.396361 0.911494 0.567174
793 1 0.423919 0.9164 0.579373
794 3 0.428336 0.920283 0.596721
795 4 0.431962 0.916059 0.57058
796 1 0.427347 0.939565 0.592681
797 3 0.423391 0.942223 0.6109
798 4 0.42794 0.948423 0.587373
799 1 0.405789 0.936772 0.609236
800 3 0.407898 0.928936 0.626267
801 4 0.396361 0.936772 0.605513
802 1 0.414293 0.912584 0.617395
803 3 0.424314 0.912993 0.632842
804 4 0.414623 0.904136 0.60987
805 1 0.437698 0.92076 0.621277
806 3 0.442576 0.925734 0.638704
807 4 0.44317 0.923554 0.611454
808 1 0.433281 0.941746 0.639734
809 3 0.438819 0.941337 0.657003
810 4 0.427413 0.949717 0.636486
811 1 0.427413 0.930367 0.666588
812 3 0.439016 0.922191 0.675856
813 4 0.418513 0.926756 0.669439
814 1 0.444686 0.91163 0.660092
815 3 0.45919 0.914492 0.667934
816 4 0.444357 0.905226 0.649715
817 1 0.461696 0.930367 0.654943
818 3 0.469607 0.935886 0.670627
819 4 0.460773 0.937521 0.646309
820 1 0.454641 0.944675 0.678866
821 3 0.459916 0.941609 0.695897
822 4 0.446796 0.951421 0.679579
823 1 0.451806 0.924235 0.698511
824 3 0.46374 0.921305 0.710314
825 4 0.44528 0.916264 0.698986
826 1 0.475804 0.918784 0.692966
827 3 0.486221 0.927301 0.703501
828 4 0.478573 0.915378 0.681717
829 1 0.482199 0.944403 0.697323
830 3 0.48754 0.947946 0.714671
831 4 0.479628 0.952783 0.690589
832 1 0.471651 0.944948 0.72481
833 3 0.478837 0.939157 0.739306
834 4 0.462289 0.943245 0.728375
835 1 0.483979 0.923213 0.729563
836 3 0.497561 0.925393 0.738752
837 4 0.482727 0.914015 0.724651
838 1 0.50567 0.933706 0.720612
839 3 0.515361 0.939565 0.734078
840 4 0.507714 0.937453 0.708888
841 1 0.503758 0.955509 0.737801
842 3 0.509098 0.955032 0.755941
843 4 0.497363 0.96348 0.735979
844 1 0.497099 0.94086 0.76212
845 3 0.505142 0.931594 0.773527
846 4 0.488001 0.936159 0.763783
847 1 0.517867 0.926211 0.757763
848 3 0.521888 0.910608 0.760773
849 4 0.525185 0.92989 0.765526
850 1 0.504945 0.904272 0.764813
851 3 0.490902 0.910063 0.758634
852 4 0.504879 0.90434 0.776933
853 1 0.482727 0.891872 0.755941
854 3 0.477057 0.893575 0.773764
855 4 0.481738 0.881583 0.753961
856 1 0.462421 0.90434 0.766477
857 3 0.450026 0.894393 0.763546
858 4 0.459059 0.913334 0.761011
859 1 0.444752 0.895892 0.785409
860 3 0.435786 0.907815 0.776854
861 4 0.44528 0.897459 0.797925
862 1 0.421084 0.897118 0.773606
863 3 0.413502 0.910881 0.769249
864 4 0.413832 0.889283 0.774794
865 1 0.410799 0.916264 0.78937
866 3 0.41159 0.932207 0.784933
867 4 0.408096 0.914015 0.801489
868 1 0.430709 0.932139 0.785409
869 3 0.42827 0.942768 0.770992
870 4 0.440467 0.928936 0.786993
871 1 0.429127 0.930095 0.75602
872 3 0.41759 0.934864 0.742792
873 4 0.43394 0.923349 0.748416
874 1 0.403745 0.932479 0.758555
875 3 0.400053 0.922941 0.74493
876 5 0.413041 0.861266 0.716716
877 1 0.387065 0.935614 0.736692
878 3 0.389109 0.929686 0.718869
879 4 0.379615 0.942768 0.735504
880 1 0.405789 0.936499 0.715938
881 3 0.405261 0.923349 0.704452
882 4 0.415282 0.940792 0.717364
883 1 0.409942 0.91054 0.719899
884 3 0.40025 0.900525 0.711502
885 4 0.413766 0.905703 0.730038
886 1 0.385614 0.90543 0.721404
887 3 0.379615 0.900593 0.704293
888 4 0.37823 0.910131 0.727662
889 1 0.381527 0.916945 0.693283
890 3 0.384164 0.908156 0.678074
891 4 0.382054 0.927301 0.691461
892 1 0.401239 0.904613 0.682193
893 3 0.399064 0.890713 0.673321
894 4 0.411063 0.90543 0.686549
895 1 0.39168 0.881924 0.69051
896 3 0.381263 0.874498 0.679024
897 4 0.390295 0.879267 0.701679
898 1 0.368671 0.88901 0.679975
899 3 0.364122 0.883219 0.663261
900 4 0.363463 0.897799 0.683064
901 1 0.376912 0.893234 0.651933
902 3 0.380736 0.882469 0.639179
903 4 0.381527 0.901955 0.647101
904 1 0.391086 0.871977 0.653042
905 3 0.385087 0.859304 0.644408
906 5 0.387065 0.798338 0.610909
907 1 0.371374 0.856851 0.659617
908 3 0.362276 0.850787 0.645437
909 4 0.367352 0.857328 0.67142
910 1 0.358584 0.868025 0.636486
911 3 0.359836 0.86128 0.619376
912 4 0.357925 0.878449 0.635536
913 1 0.377901 0.86564 0.616762
914 3 0.378626 0.852354 0.605355
915 4 0.387329 0.86966 0.618504
916 1 0.379681 0.840022 0.622386