LAMMPS protain data file

        2694  atoms
        3586  bonds
           0  angles
           0  dihedrals
           0  impropers

           5  atom types
           5  bond types
           0  angle types
           0  dihedral types
           0  improper types

-200.0	200.0	xlo xhi
-200.0	200.0	ylo yhi
-200.0	200.0	zlo zhi

Masses

           1	27.0
           2	14.0
           3	28.0
           4	60.0
           5	60.0

Atoms

           1	1	1	1	0.0	10.519	-1.145	-23.395998
           2	1	1	3	0.0	11.347	0.589	-21.992
           3	1	1	4	0.0	10.719	-2.479	-22.695
           4	1	2	1	0.0	13.724	0.836	-23.279
           5	1	2	3	0.0	13.464	3.181	-22.806
           6	1	2	4	0.0	15.024	0.489	-24.043001
           7	1	3	1	0.0	12.028	3.737	-25.045
           8	1	3	3	0.0	10.817001	5.322	-23.755001
           9	1	3	4	0.0	11.509	3.75	-26.491001
          10	1	4	1	0.0	9.104	3.515	-22.648
          11	1	4	3	0.0	9.289	4.842	-20.662
          12	1	4	4	0.0	8.163	2.321	-22.469997
          13	1	5	1	0.0	11.485	3.536	-19.712
          14	1	5	3	0.0	12.11	5.678	-18.842
          15	1	5	4	0.0	12.521	2.433	-19.389
          16	1	6	1	0.0	13.342001	6.517	-21.11
          17	1	6	3	0.0	12.528	8.681	-20.587
          18	1	6	4	0.0	14.148999	6.556	-22.401
          19	1	7	1	0.0	10.048	8.303	-21.673
          20	1	7	3	0.0	9.287	9.693	-19.868
          21	1	7	4	0.0	8.914	7.856	-22.599
          22	1	8	1	0.0	8.884	7.628	-18.142
          23	1	8	3	0.0	9.596	9.211	-16.461
          24	1	8	4	0.0	8.475	6.2829995	-17.567
          25	1	9	1	0.0	12.242	8.632	-16.727
          26	1	9	3	0.0	12.535	10.945	-16.17
          27	1	9	4	0.0	13.584	7.929	-16.966
          28	1	10	1	0.0	12.242	11.82	-18.729
          29	1	10	3	0.0	11.2	13.762999	-17.757
          30	1	10	4	0.0	12.262001	11.932	-20.252
          31	1	11	1	0.0	8.71	12.629	-17.56
          32	1	11	3	0.0	8.533	13.935	-15.572
          33	1	11	4	0.0	7.472	11.791	-17.832
          34	1	12	1	0.0	9.697	12.075001	-13.961001
          35	1	12	3	0.0	10.658	13.901	-12.722001
          36	1	12	4	0.0	10.089	10.749	-13.306
          37	1	13	1	0.0	12.792	14.247001	-14.391001
          38	1	13	3	0.0	12.448	16.566	-13.898
          39	1	13	4	0.0	13.979	13.958999	-15.307
          40	1	14	1	0.0	10.636	16.983	-15.865
          41	1	14	3	0.0	9.618	18.515	-14.347
          42	1	14	4	0.0	9.879	16.95	-17.179
          43	1	15	1	0.0	8.068	16.656	-13.097
          44	1	15	3	0.0	8.435	18.007	-11.138
          45	1	15	4	0.0	7.175	15.458999	-12.829999
          46	1	16	1	0.0	10.717	16.708	-10.399
          47	1	16	3	0.0	11.451	18.89	-9.672
          48	1	16	4	0.0	11.756	15.611	-10.105
          49	1	17	1	0.0	12.384999	19.639	-12.085
          50	1	17	3	0.0	11.673001	21.836	-11.487
          51	1	17	5	0.0	11.817999	18.929619	-11.661984
          52	1	18	1	0.0	9.066	21.489	-12.244
          53	1	18	3	0.0	8.531	22.878	-10.36
          54	1	18	4	0.0	7.839	21.043	-13.005
          55	1	19	1	0.0	8.418	20.831	-8.567
          56	1	19	3	0.0	9.305	22.370003	-6.959
          57	1	19	4	0.0	8.152	19.465	-7.917
          58	1	20	1	0.0	11.924	21.932	-7.588
          59	1	20	3	0.0	12.252	24.266003	-7.204
          60	1	20	4	0.0	13.217	21.193	-7.923
          61	1	21	1	0.0	11.573	25.008	-9.691
          62	1	21	3	0.0	10.654	27.035	-8.785
          63	1	21	4	0.0	11.378	25.060999	-11.234
          64	1	22	1	0.0	8.289	25.919003	-7.9990005
          65	1	22	3	0.0	7.3289995	26.231	-5.862
          66	1	22	4	0.0	6.96	25.439	-8.587
          67	1	23	1	0.0	9.334	24.968	-4.5
          68	1	23	3	0.0	11.728	24.867	-4.832
          69	1	23	4	0.0	8.577	23.723	-4.064
          70	1	24	1	0.0	12.281	24.712	-2.132
          71	1	24	3	0.0	13.590999	23.036999	-1.013
          72	1	24	4	0.0	12.34	25.582	-0.847
          73	1	25	1	0.0	12.175	20.909	-2.0
          74	1	25	3	0.0	13.714	20.757	-3.854
          75	1	25	4	0.0	11.005	20.012	-2.451
          76	1	26	1	0.0	15.630999	19.42	-2.411
          77	1	26	3	0.0	14.754	17.289	-3.107
          78	1	26	4	0.0	16.554	19.041	-1.271
          79	1	27	1	0.0	15.903	17.417	-5.583
          80	1	27	3	0.0	16.556	15.144	-6.03
          81	1	27	4	0.0	16.17	18.092	-6.943
          82	1	28	1	0.0	18.741	15.152	-4.406
          83	1	28	3	0.0	18.449	12.817001	-4.522
          84	1	28	4	0.0	19.923	15.599	-3.552
          85	1	29	1	0.0	16.848	12.476999	-2.414
          86	1	29	3	0.0	15.952	10.681	-3.691
          87	1	29	4	0.0	16.17	12.747001	-1.068
          88	1	30	1	0.0	14.035	12.15	-4.913
          89	1	30	3	0.0	14.42	10.686	-6.764
          90	1	30	4	0.0	12.909001	13.168	-5.165
          91	1	31	1	0.0	16.389	12.182001	-7.857
          92	1	31	3	0.0	17.46	10.149	-8.542
          93	1	31	4	0.0	17.256	13.351001	-8.333
          94	1	32	1	0.0	18.572	9.65	-6.098
          95	1	32	3	0.0	18.106	7.3289995	-6.558
          96	1	32	4	0.0	19.286	9.818	-4.764
          97	1	33	1	0.0	15.579	7.374	-5.494
          98	1	33	3	0.0	15.169	5.785	-7.268
          99	1	33	4	0.0	14.379001	7.69	-4.594
         100	1	34	1	0.0	14.374	7.6449995	-9.066
         101	1	34	3	0.0	15.36	6.14	-10.681
         102	1	34	4	0.0	13.758	8.897	-9.704
         103	1	35	1	0.0	17.882	7.096	-10.377
         104	1	35	3	0.0	18.524	4.832	-10.791
         105	1	35	4	0.0	19.077	8.025	-10.15
         106	1	36	1	0.0	18.334	4.031	-8.211
         107	1	36	3	0.0	17.52	1.85	-8.661
         108	1	36	4	0.0	18.458	4.027	-6.676
         109	1	37	1	0.0	15.055	2.643	-9.449
         110	1	37	3	0.0	15.366	1.176	-11.332999
         111	1	37	4	0.0	13.654	3.223	-9.185
         112	1	38	1	0.0	15.413	3.139	-13.170001
         113	1	38	3	0.0	16.858	2.06	-14.712999
         114	1	38	4	0.0	14.924999	4.38	-13.911
         115	1	39	1	0.0	19.172	2.844	-13.538999
         116	1	39	3	0.0	20.168	0.735	-14.05
         117	1	39	4	0.0	20.188	3.817	-12.976999
         118	1	40	1	0.0	19.66	-0.373	-11.599
         119	1	40	3	0.0	17.42	-1.145	-12.001999
         120	1	40	4	0.0	19.825	-0.455	-10.102
         121	1	41	1	0.0	18.254	-3.598	-12.997
         122	1	41	3	0.0	19.711	-5.505	-12.852
         123	1	41	4	0.0	18.251	-3.699	-14.526001
         124	1	42	1	0.0	18.38	-6.52	-10.563
         125	1	42	3	0.0	20.601	-7.458	-10.361
         126	1	42	4	0.0	18.049	-7.758	-11.393
         127	1	43	1	0.0	21.535	-5.403	-8.844
         128	1	43	3	0.0	22.958	-6.3029995	-7.158
         129	1	43	5	0.0	20.173	-4.538044	-8.616413
         130	1	44	1	0.0	20.902	-7.232	-5.624
         131	1	44	3	0.0	22.195	-6.897	-3.65
         132	1	44	5	0.0	20.753	-7.9701166	-4.811096
         133	1	45	1	0.0	21.413	-4.301	-3.311
         134	1	45	3	0.0	21.424	-4.847	-0.996
         135	1	45	4	0.0	21.158	-2.821	-3.687
         136	1	46	1	0.0	18.662	-5.043	-0.813
         137	1	46	3	0.0	18.374	-7.32	-1.448
         138	1	46	4	0.0	17.227	-4.52	-0.926
         139	1	47	1	0.0	19.0	-8.281	1.046
         140	1	47	3	0.0	18.303	-7.637	3.249
         141	1	47	4	0.0	20.438	-8.799	1.185
         142	1	48	1	0.0	16.825	-9.963	3.623
         143	1	48	3	0.0	17.828	-12.132	3.511
         144	1	48	4	0.0	15.336	-10.181	3.306
         145	1	49	1	0.0	17.971	-12.515	6.149
         146	1	49	3	0.0	15.825	-13.585	5.916
         147	1	49	4	0.0	18.094	-12.125	7.628
         148	1	50	1	0.0	16.894	-16.113	5.707
         149	1	50	3	0.0	16.616	-16.186	8.102
         150	1	50	4	0.0	17.827	-17.244	5.261
         151	1	51	1	0.0	14.301	-17.645	7.962
         152	1	51	3	0.0	12.876	-15.729	7.741
         153	1	51	5	0.0	15.073	-17.606422	8.228414
         154	1	52	1	0.0	12.244	-15.660999	10.419
         155	1	52	3	0.0	14.104	-14.421999	11.297
         156	1	52	4	0.0	11.670001	-16.245	11.719
         157	1	53	1	0.0	13.118001	-11.986001	10.413
         158	1	53	3	0.0	11.624	-10.896999	11.972
         159	1	53	4	0.0	12.740999	-11.028	9.299
         160	1	54	1	0.0	13.299001	-11.163	14.11
         161	1	54	3	0.0	12.23	-9.18	14.918999
         162	1	54	4	0.0	14.332999	-11.747001	15.078001
         163	1	55	1	0.0	14.142999	-7.502	14.046
         164	1	55	3	0.0	12.443001	-5.846	13.865
         165	1	55	4	0.0	15.532	-6.919	13.796
         166	1	56	1	0.0	11.531	-6.442	11.444
         167	1	56	3	0.0	9.34	-6.049	12.294
         168	1	56	4	0.0	11.549	-6.925	10.009
         169	1	57	1	0.0	9.019	-8.515	13.369001
         170	1	57	3	0.0	7.8229995	-7.372	15.096
         171	1	57	4	0.0	9.05	-10.023	13.626
         172	1	58	1	0.0	10.02	-6.74	16.552
         173	1	58	3	0.0	8.838	-4.724	17.067
         174	1	58	4	0.0	11.369999	-6.811	17.229
         175	1	59	1	0.0	9.658	-3.375	14.852
         176	1	59	3	0.0	7.5009995	-2.338	14.873
         177	1	59	4	0.0	10.498	-2.859	13.682999
         178	1	60	1	0.0	6.235	-4.357	13.542
         179	1	60	3	0.0	4.37	-3.836	14.965
         180	1	60	4	0.0	5.9530005	-5.496	12.550999
         181	1	61	1	0.0	5.176	-5.417	17.031
         182	1	61	3	0.0	4.157	-3.675	18.36
         183	1	61	4	0.0	5.7569995	-6.55	17.862
         184	1	62	1	0.0	6.342	-2.076	18.384
         185	1	62	3	0.0	4.712	-0.298	18.37
         186	1	62	4	0.0	7.798	-1.574	18.392
         187	1	63	1	0.0	4.418	-0.272	15.670999
         188	1	63	3	0.0	2.121	0.279	16.16
         189	1	63	4	0.0	4.705	-0.319	14.157
         190	1	64	1	0.0	1.288	-2.291	16.431
         191	1	64	3	0.0	-0.152	-1.254	18.055
         192	1	64	4	0.0	1.136	-3.819	16.297
         193	1	65	1	0.0	1.577	-1.543	20.149
         194	1	65	3	0.0	0.483	0.469	20.881
         195	1	65	4	0.0	2.676	-2.059	21.084
         196	1	66	1	0.0	2.156	2.161	19.559
         197	1	66	3	0.0	0.28	3.608	19.318
         198	1	66	4	0.0	3.388	2.796	18.947
         199	1	67	1	0.0	-0.659	2.436	17.051
         200	1	67	3	0.0	-2.796	3.007	17.975
         201	1	67	4	0.0	-0.697	1.777	15.674
         202	1	68	1	0.0	-3.223	0.564	19.119
         203	1	68	3	0.0	-4.375	1.981	20.706
         204	1	68	4	0.0	-3.217	-0.929	19.429
         205	1	69	1	0.0	-2.278	2.246	22.395
         206	1	69	3	0.0	-3.287	4.367	22.881
         207	1	69	5	0.0	-2.242	1.8925254	22.276157
         208	1	70	1	0.0	-1.992	5.701	20.937
         209	1	70	3	0.0	-3.958	7.0650005	20.894
         210	1	70	5	0.0	-1.833	6.452157	19.675892
         211	1	71	1	0.0	-5.27	5.57	19.077
         212	1	71	3	0.0	-7.3550005	6.02	20.165
         213	1	71	4	0.0	-5.5329995	4.796	17.775
         214	1	72	1	0.0	-7.094	4.108	22.043001
         215	1	72	3	0.0	-8.132	5.764	23.445997
         216	1	72	4	0.0	-6.821	2.76	22.742
         217	1	73	1	0.0	-5.807	6.997	24.140999
         218	1	73	3	0.0	-7.066	9.031	24.157
         219	1	73	4	0.0	-4.373	7.265	24.514
         220	1	74	1	0.0	-6.937	9.47	21.483
         221	1	74	3	0.0	-9.165	10.306	21.758001
         222	1	74	4	0.0	-6.406	9.596	20.052
         223	1	75	1	0.0	-10.398	7.8949995	21.344
         224	1	75	3	0.0	-11.976999	8.851	22.891
         225	1	75	4	0.0	-10.727	6.466	20.851
         226	1	76	1	0.0	-10.695	7.975	25.128
         227	1	76	3	0.0	-11.528999	10.01	26.097
         228	1	76	4	0.0	-9.883	7.182	26.113
         229	1	77	1	0.0	-9.465	11.552	25.288
         230	1	77	3	0.0	-11.03	13.375	25.155
         231	1	77	4	0.0	-8.065	12.052	24.923998
         232	1	78	1	0.0	-11.926	12.757	22.662998
         233	1	78	3	0.0	-14.117	13.349	23.468
         234	1	78	4	0.0	-11.874	12.454	21.155
         235	1	79	1	0.0	-14.841	10.826	24.121
         236	1	79	3	0.0	-16.19	11.428	25.984
         237	1	79	4	0.0	-15.067	9.328	23.971
         238	1	80	1	0.0	-14.148	11.645001	27.763998
         239	1	80	3	0.0	-14.734	13.64	28.912
         240	1	80	4	0.0	-13.181	10.807	28.608
         241	1	81	1	0.0	-12.734999	15.163	27.829
         242	1	81	3	0.0	-13.964	16.021	25.931
         243	1	81	4	0.0	-11.332	15.573	27.389
         244	1	82	1	0.0	-15.478	17.764	27.392998
         245	1	82	3	0.0	-15.629	19.625	25.939001
         246	1	82	4	0.0	-16.394	18.256	28.497002
         247	1	83	1	0.0	-12.993	20.328	26.084
         248	1	83	3	0.0	-12.338	20.873	23.876999
         249	1	83	4	0.0	-11.709	20.775	26.796999
         250	1	84	1	0.0	-12.383	18.259	22.938
         251	1	84	3	0.0	-13.501001	17.206	21.127
         252	1	84	4	0.0	-11.403	17.086	22.980999
         253	1	85	1	0.0	-16.013	18.053	21.864
         254	1	85	3	0.0	-16.887	20.116	21.04
         255	1	85	4	0.0	-17.213	17.989	22.819998
         256	1	86	1	0.0	-15.942	19.688	18.467
         257	1	86	3	0.0	-15.559	17.629	17.317
         258	1	86	4	0.0	-14.988	20.895	18.363
         259	1	87	1	0.0	-16.299	18.621	14.863
         260	1	87	3	0.0	-14.789	16.993	13.985
         261	1	87	4	0.0	-16.946	19.446	13.759001
         262	1	88	1	0.0	-12.585	18.572	14.214
         263	1	88	3	0.0	-11.452	16.484	14.553001
         264	1	88	4	0.0	-11.644	19.789	14.284
         265	1	89	1	0.0	-11.92	16.36	17.199
         266	1	89	3	0.0	-12.271	14.0	17.144
         267	1	89	4	0.0	-11.968	16.748	18.67
         268	1	90	1	0.0	-14.745	14.11	16.046
         269	1	90	3	0.0	-14.052	12.227	14.732
         270	1	90	4	0.0	-16.209	14.458	15.777001
         271	1	91	1	0.0	-12.906999	13.722999	12.752
         272	1	91	3	0.0	-11.199	12.053999	12.642999
         273	1	91	4	0.0	-12.613	14.809	11.721
         274	1	92	1	0.0	-9.702	13.038999	14.687
         275	1	92	3	0.0	-9.193	10.806	15.362
         276	1	92	4	0.0	-8.988	14.021	15.624
         277	1	93	1	0.0	-11.571	10.438	16.694
         278	1	93	3	0.0	-11.398	8.215	15.837
         279	1	93	4	0.0	-12.816	10.662	17.539
         280	1	94	1	0.0	-12.742	8.729	13.532
         281	1	94	3	0.0	-11.281	7.1770005	12.421
         282	1	94	4	0.0	-13.745	9.288	12.504
         283	1	95	1	0.0	-9.198	8.945	12.175
         284	1	95	3	0.0	-7.774	7.072	12.634
         285	1	95	4	0.0	-8.392	10.225	11.971001
         286	1	96	1	0.0	-7.9670005	7.302	15.344
         287	1	96	3	0.0	-7.908	4.906	15.457
         288	1	96	4	0.0	-8.043	7.876	16.766
         289	1	97	1	0.0	-10.567	4.566	14.906001
         290	1	97	3	0.0	-9.835	2.658	13.68
         291	1	97	4	0.0	-12.097	4.764	14.894001
         292	1	98	1	0.0	-9.329	3.998	11.387
         293	1	98	3	0.0	-7.581	2.373	11.175
         294	1	98	4	0.0	-9.384	5.011	10.242
         295	1	99	1	0.0	-5.706	3.811	12.467
         296	1	99	3	0.0	-4.85	1.75	13.328
         297	1	99	4	0.0	-4.851	4.973	12.949001
         298	1	100	1	0.0	-6.6389995	1.573	15.383
         299	1	100	3	0.0	-6.534	-0.767	14.957
         300	1	100	4	0.0	-7.606	1.908	16.513
         301	1	101	1	0.0	-8.405	-0.77	12.996
         302	1	101	3	0.0	-7.226	-2.444	11.76
         303	1	101	4	0.0	-9.697	-0.51	12.252
         304	1	102	1	0.0	-5.297	-0.744	10.814001
         305	1	102	3	0.0	-3.92	-2.64	11.356
         306	1	102	4	0.0	-4.576	0.469	10.2
         307	1	103	1	0.0	-3.274	-1.76	13.832
         308	1	103	3	0.0	-3.076	-3.901	14.857001
         309	1	103	5	0.0	-4.166	-1.5076846	13.491861
         310	1	104	1	0.0	-5.7690005	-4.457	14.799001
         311	1	104	3	0.0	-5.82	-6.669	13.979
         312	1	104	4	0.0	-7.094	-4.14	15.5
         313	1	105	1	0.0	-6.884	-6.004	11.544
         314	1	105	3	0.0	-6.12	-7.074	9.571
         315	1	105	4	0.0	-8.287	-5.629	11.056
         316	1	106	1	0.0	-4.202	-5.222	8.967
         317	1	106	3	0.0	-2.202	-6.5	8.682
         318	1	106	4	0.0	-4.246	-3.873	8.242
         319	1	107	1	0.0	-0.815	-5.213	10.633
         320	1	107	3	0.0	0.586	-7.0989995	10.895
         321	1	107	4	0.0	-0.323	-4.109	11.585
         322	1	108	1	0.0	-0.997	-8.62	12.381
         323	1	108	3	0.0	-0.18	-10.54	11.246
         324	1	108	4	0.0	-2.071	-8.976	13.404
         325	1	109	1	0.0	-1.737	-10.272	9.061
         326	1	109	3	0.0	0.134	-11.013	7.772
         327	1	109	4	0.0	-2.959	-10.067	8.175
         328	1	110	1	0.0	1.289	-8.551	7.608
         329	1	110	3	0.0	3.414	-9.636	7.87
         330	1	110	4	0.0	1.492	-7.048	7.433
         331	1	111	1	0.0	3.243	-9.789	10.578
         332	1	111	3	0.0	4.377	-11.889	10.282
         333	1	111	4	0.0	2.945	-9.473	12.053001
         334	1	112	1	0.0	2.116	-13.328	9.851
         335	1	112	3	0.0	3.376	-14.611	8.306
         336	1	112	4	0.0	0.692	-13.875	9.925
         337	1	113	1	0.0	3.105	-12.859	6.239
         338	1	113	3	0.0	5.316	-13.421999	5.5450006
         339	1	113	4	0.0	2.524	-11.84	5.27
         340	1	114	1	0.0	6.56	-11.804999	7.3150005
         341	1	114	3	0.0	8.174	-13.559	7.678
         342	1	114	4	0.0	6.938	-10.48	8.006
         343	1	115	1	0.0	6.932	-14.601	9.845
         344	1	115	3	0.0	7.667	-16.828	9.479
         345	1	115	4	0.0	6.141	-14.750001	11.141
         346	1	116	1	0.0	6.087	-17.277	7.25
         347	1	116	3	0.0	6.248	-17.659	4.911
         348	1	116	4	0.0	4.667	-17.792	7.155
         349	1	117	1	0.0	8.487	-15.995	4.577
         350	1	117	3	0.0	7.836	-16.0	2.281
         351	1	117	4	0.0	9.321	-17.235	4.227
         352	1	118	1	0.0	5.7509995	-14.104	2.691
         353	1	118	3	0.0	4.507	-15.012	0.868
         354	1	118	4	0.0	6.5069995	-13.249999	1.668
         355	1	119	1	0.0	3.643	-17.22	2.288
         356	1	119	3	0.0	2.444	-17.141	4.361
         357	1	119	4	0.0	4.265	-18.613	2.397
         358	1	120	1	0.0	-0.018	-16.752	3.136
         359	1	120	3	0.0	-0.916	-18.932	3.2
         360	1	120	4	0.0	-1.08	-16.272	2.123
         361	1	121	1	0.0	-0.773	-19.271	5.874
         362	1	121	3	0.0	-2.758	-20.497	6.386
         363	1	121	4	0.0	-0.005	-19.154	7.195
         364	1	122	1	0.0	-4.399	-18.287	6.35
         365	1	122	3	0.0	-4.625	-18.974	4.062
         366	1	122	4	0.0	-4.832	-16.864	6.699
         367	1	123	1	0.0	-7.2509995	-19.588	4.208
         368	1	123	3	0.0	-7.194	-17.346	3.303
         369	1	123	4	0.0	-8.617	-19.829	4.82
         370	1	124	1	0.0	-7.359	-18.26	0.699
         371	1	124	3	0.0	-8.148	-16.187	-0.155
         372	1	124	4	0.0	-7.365	-19.143	-0.561
         373	1	125	1	0.0	-10.572	-16.248	1.049
         374	1	125	3	0.0	-10.941	-14.035	1.814
         375	1	125	4	0.0	-11.961999	-16.835	1.389
         376	1	126	1	0.0	-8.982	-14.044	3.691
         377	1	126	3	0.0	-7.732	-12.027	3.601
         378	1	126	4	0.0	-8.413	-14.544	5.032
         379	1	127	1	0.0	-6.454	-12.593999	1.265
         380	1	127	3	0.0	-6.6649995	-10.246	0.929
         381	1	127	4	0.0	-5.649	-13.366	0.217
         382	1	128	1	0.0	-8.895	-10.232	-0.513
         383	1	128	3	0.0	-9.607	-8.229	0.561
         384	1	128	4	0.0	-9.969	-10.707	-1.478
         385	1	129	1	0.0	-10.424	-9.416	2.86
         386	1	129	3	0.0	-9.591	-7.4010005	3.848
         387	1	129	4	0.0	-11.032	-10.415	3.867
         388	1	130	1	0.0	-7.068	-8.35	4.192
         389	1	130	3	0.0	-6.482	-6.062	3.809
         390	1	130	4	0.0	-5.865	-9.265	4.424
         391	1	131	1	0.0	-6.188	-6.2969995	1.135
         392	1	131	3	0.0	-7.011	-4.035	1.121
         393	1	131	4	0.0	-5.872	-6.8550005	-0.258
         394	1	132	1	0.0	-9.635	-4.716	1.143
         395	1	132	3	0.0	-9.932	-2.709	2.409
         396	1	132	4	0.0	-10.963	-5.4210005	0.923
         397	1	133	1	0.0	-9.35	-3.821	4.8
         398	1	133	3	0.0	-8.319	-1.747	5.4210005
         399	1	133	4	0.0	-9.291	-4.779	5.997
         400	1	134	1	0.0	-5.908	-2.329	4.24
         401	1	134	3	0.0	-6.005	0.045	3.855
         402	1	134	4	0.0	-4.716	-3.08	3.667
         403	1	135	1	0.0	-7.1310005	-0.164	1.378
         404	1	135	3	0.0	-8.275	1.868	1.955
         405	1	135	4	0.0	-7.47	-0.644	-0.034
         406	1	136	1	0.0	-10.32	0.644	3.274
         407	1	136	3	0.0	-10.238	2.757	4.426
         408	1	136	4	0.0	-11.295	-0.391	3.842
         409	1	137	1	0.0	-8.649	1.892	6.4070005
         410	1	137	3	0.0	-7.612	4.032	6.6189995
         411	1	137	4	0.0	-8.143	0.982	7.543
         412	1	138	1	0.0	-5.847	3.667	4.589
         413	1	138	3	0.0	-6.291	5.978	4.079
         414	1	138	4	0.0	-4.784	3.047	3.671
         415	1	139	1	0.0	-8.345	5.451	2.389
         416	1	139	3	0.0	-9.36	7.4409995	3.247
         417	1	139	4	0.0	-9.203	4.796	1.318
         418	1	140	1	0.0	-10.45	6.2690005	5.43
         419	1	140	3	0.0	-10.011	8.361	6.51
         420	1	140	4	0.0	-11.071	5.266	6.398
         421	1	141	1	0.0	-7.411	7.8090005	7.089
         422	1	141	3	0.0	-7.168	10.167	6.712
         423	1	141	4	0.0	-6.107	7.084	7.429
         424	1	142	1	0.0	-6.584	9.906	4.065
         425	1	142	3	0.0	-7.722	12.032	3.924
         426	1	142	4	0.0	-6.077	9.368	2.703
         427	1	143	1	0.0	-10.213	10.994	3.634
         428	1	143	3	0.0	-11.05	12.889	4.817
         429	1	143	4	0.0	-11.396	10.098	3.234
         430	1	144	1	0.0	-10.451	11.958	7.274
         431	1	144	3	0.0	-9.906	14.224	7.7969995
         432	1	144	4	0.0	-10.288	11.062	8.504
         433	1	145	1	0.0	-7.324	14.083	6.975
         434	1	145	3	0.0	-7.618	16.342	6.23
         435	1	145	4	0.0	-5.9	13.6	6.6909995
         436	1	146	1	0.0	-8.754	15.660999	3.855
         437	1	146	3	0.0	-10.09	17.633	4.203
         438	1	146	4	0.0	-9.095	14.927	2.561
         439	1	147	1	0.0	-12.010999	16.399	5.652
         440	1	147	3	0.0	-12.200999	18.441	6.871
         441	1	147	4	0.0	-12.989001	15.359	6.214
         442	1	148	1	0.0	-10.086	17.918	8.538
         443	1	148	3	0.0	-9.732	20.289	8.373
         444	1	148	4	0.0	-9.078	17.171	9.434
         445	1	149	1	0.0	-8.103	20.134	6.21
         446	1	149	3	0.0	-9.095	22.27	5.681
         447	1	149	4	0.0	-7.096	19.691	5.173
         448	1	150	1	0.0	-11.227	21.209	4.348
         449	1	150	3	0.0	-12.45	23.077	5.224
         450	1	150	4	0.0	-12.103001	20.34	3.476
         451	1	151	1	0.0	-13.165	21.856	7.54
         452	1	151	3	0.0	-13.023001	24.051	8.484
         453	1	151	4	0.0	-13.56	20.807	8.591
         454	1	152	1	0.0	-10.36	23.931	9.014
         455	1	152	3	0.0	-10.313	26.260002	8.498
         456	1	152	4	0.0	-8.981	23.425	9.476
         457	1	153	1	0.0	-10.012	25.938	5.84
         458	1	153	3	0.0	-11.339001	27.916	5.678
         459	1	153	4	0.0	-9.599	25.425	4.455
         460	1	154	1	0.0	-13.733	26.609999	5.662
         461	1	154	3	0.0	-14.568999	28.454	6.9349995
         462	1	154	4	0.0	-14.832	25.576	5.35
         463	1	155	1	0.0	-13.749	27.516	9.347
         464	1	155	3	0.0	-13.342001	29.747	10.057
         465	1	155	4	0.0	-13.391001	26.572	10.493
         466	1	156	1	0.0	-10.884999	29.968	8.864
         467	1	156	3	0.0	-11.384	32.189	8.097
         468	1	156	4	0.0	-9.397	29.573	8.713
         469	1	157	1	0.0	-11.96	31.431	5.532
         470	1	157	3	0.0	-13.564	33.207	5.456
         471	1	157	4	0.0	-11.85	30.742998	4.186
         472	1	158	1	0.0	-15.670999	31.686998	6.36
         473	1	158	3	0.0	-16.689	30.390001	8.097
         474	1	158	4	0.0	-16.61	30.962	5.411
         475	1	159	1	0.0	-16.214	32.14	10.1
         476	1	159	3	0.0	-18.19	31.271	11.138
         477	1	159	4	0.0	-15.559	33.307	10.847
         478	1	160	1	0.0	-19.906	33.005	9.932
         479	1	160	3	0.0	-21.498	31.194	9.929
         480	1	160	4	0.0	-20.484	34.35	9.432
         481	1	161	1	0.0	-20.787	30.28	7.434
         482	1	161	3	0.0	-21.355	28.128	8.324
         483	1	161	4	0.0	-20.288	30.193	5.99
         484	1	162	1	0.0	-18.879	27.612999	9.316
         485	1	162	3	0.0	-19.87	26.417002	11.132
         486	1	162	4	0.0	-17.367	27.539	9.479
         487	1	163	1	0.0	-20.331	28.637	12.655001
         488	1	163	3	0.0	-22.306	27.508999	13.4
         489	1	163	4	0.0	-20.063	29.958	13.361
         490	1	164	1	0.0	-24.016	28.926998	11.809
         491	1	164	3	0.0	-25.726	27.341997	11.267
         492	1	164	4	0.0	-24.678001	30.198	11.269
         493	1	165	1	0.0	-24.167	25.88	9.518
         494	1	165	3	0.0	-22.898003	23.926998	8.917
         495	1	165	4	0.0	-24.167	26.166	8.014
         496	1	166	1	0.0	-22.062	23.41	11.505
         497	1	166	3	0.0	-22.851	23.541	13.749
         498	1	166	4	0.0	-20.609	23.823	11.729
         499	1	167	1	0.0	-23.51	20.884	13.896999
         500	1	167	3	0.0	-22.208998	19.024	13.086
         501	1	167	4	0.0	-25.036	20.816	13.784
         502	1	168	1	0.0	-22.772	17.466	15.245
         503	1	168	3	0.0	-22.642	15.583	13.789999
         504	1	168	4	0.0	-23.052002	17.0	16.675
         505	1	169	1	0.0	-25.192	15.804	12.884
         506	1	169	3	0.0	-24.362	14.988	10.8
         507	1	169	4	0.0	-26.704	16.038	12.786
         508	1	170	1	0.0	-23.469	17.406	9.911
         509	1	170	3	0.0	-21.642	16.213	8.942
         510	1	170	4	0.0	-23.371998	18.9	9.616
         511	1	171	1	0.0	-20.11	16.191	11.177
         512	1	171	3	0.0	-19.429	14.038999	10.399
         513	1	171	4	0.0	-19.445	16.588	12.495
         514	1	172	1	0.0	-21.495	12.7	11.585
         515	1	172	3	0.0	-21.419	11.276	9.641
         516	1	172	4	0.0	-22.573	12.274	12.6
         517	1	173	1	0.0	-22.896997	12.894001	8.043
         518	1	173	3	0.0	-21.466	12.12	6.302
         519	1	173	4	0.0	-23.936	13.887	7.5069995
         520	1	174	1	0.0	-19.499	13.946001	6.774
         521	1	174	3	0.0	-18.011	12.185999	6.1189995
         522	1	174	4	0.0	-18.742	15.216	7.124
         523	1	175	1	0.0	-17.861	11.068999	8.605
         524	1	175	3	0.0	-17.772	8.981	7.402
         525	1	175	4	0.0	-17.752	10.903	10.129
         526	1	176	1	0.0	-20.451	8.689	7.1510005
         527	1	176	3	0.0	-19.979	7.676	5.052
         528	1	176	4	0.0	-21.965	8.746	7.387
         529	1	177	1	0.0	-19.685	10.031	3.674
         530	1	177	3	0.0	-17.944	8.919	2.475
         531	1	177	4	0.0	-19.964	11.45	3.18
         532	1	178	1	0.0	-15.982	9.466	4.279
         533	1	178	3	0.0	-15.218	7.321	3.51
         534	1	178	4	0.0	-15.128	10.131	5.37
         535	1	179	1	0.0	-16.601	5.874	5.294
         536	1	179	3	0.0	-16.818	4.193	3.624
         537	1	179	4	0.0	-17.212	5.392	6.595
         538	1	180	1	0.0	-18.989	5.356	2.402
         539	1	180	3	0.0	-18.038	4.474	0.37
         540	1	180	4	0.0	-20.266	6.114	2.131
         541	1	181	1	0.0	-16.336	6.554	-0.013
         542	1	181	3	0.0	-14.851001	4.84	-0.808
         543	1	181	4	0.0	-15.758	7.9809995	-0.098
         544	1	182	1	0.0	-13.73	4.35	1.624
         545	1	182	3	0.0	-13.486001	2.119	0.751
         546	1	182	4	0.0	-13.217	4.474	3.067
         547	1	183	1	0.0	-15.965	1.277	1.509
         548	1	183	3	0.0	-15.932	0.058	-0.564
         549	1	183	4	0.0	-17.243	1.062	2.327
         550	1	184	1	0.0	-16.889	2.075	-2.075
         551	1	184	3	0.0	-15.676	1.262	-3.961
         552	1	184	5	0.0	-16.674	1.9749806	-2.808699
         553	1	185	1	0.0	-13.239	2.142	-3.055
         554	1	185	3	0.0	-12.269	0.047	-3.683
         555	1	185	4	0.0	-12.19	3.195	-2.604
         556	1	186	1	0.0	-12.338	-1.032	-1.18
         557	1	186	3	0.0	-12.745	-3.367	-1.346
         558	1	186	4	0.0	-11.984	-1.006	0.304
         559	1	187	1	0.0	-15.365	-3.179	-2.112
         560	1	187	3	0.0	-14.989001	-5.225	-3.271
         561	1	187	4	0.0	-16.822	-2.696	-2.18
         562	1	188	1	0.0	-14.14	-4.246	-5.595
         563	1	188	3	0.0	-12.722001	-6.05	-6.184
         564	1	188	4	0.0	-13.795	-3.236	-6.696
         565	1	189	1	0.0	-11.125	-5.926	-4.012
         566	1	189	3	0.0	-11.185001	-8.308	-4.328
         567	1	189	4	0.0	-10.2	-5.371	-2.91
         568	1	190	1	0.0	-12.997	-8.939	-2.554
         569	1	190	3	0.0	-13.961999	-10.656	-3.907
         570	1	190	4	0.0	-13.752	-8.903	-1.235
         571	1	191	1	0.0	-15.361	-8.969	-5.502
         572	1	191	3	0.0	-14.777999	-10.67	-7.116
         573	1	191	4	0.0	-16.226	-7.81	-6.028
         574	1	192	1	0.0	-12.541001	-9.4	-7.994
         575	1	192	3	0.0	-11.461999	-11.547	-8.114
         576	1	192	4	0.0	-11.685999	-8.266	-8.574
         577	1	193	1	0.0	-10.451	-11.453	-5.6
         578	1	193	3	0.0	-10.482	-13.837	-5.58
         579	1	193	5	0.0	-11.292999	-10.866322	-4.796878
         580	1	194	1	0.0	-13.128	-14.056	-4.967
         581	1	194	3	0.0	-13.787001	-15.849	-6.367
         582	1	194	4	0.0	-14.36	-13.887	-4.082
         583	1	195	1	0.0	-13.868	-14.384	-8.66
         584	1	195	3	0.0	-12.677	-16.023	-9.932
         585	1	195	4	0.0	-14.509	-13.339001	-9.557
         586	1	196	1	0.0	-10.262	-14.662	-9.86
         587	1	196	3	0.0	-8.699	-13.523001	-8.464
         588	1	196	4	0.0	-9.95	-13.771	-11.067
         589	1	197	1	0.0	-7.656	-15.781	-7.367
         590	1	197	3	0.0	-5.3750005	-15.142999	-7.1710005
         591	1	197	4	0.0	-7.63	-17.148	-6.689
         592	1	198	1	0.0	-4.848	-15.212999	-9.85
         593	1	198	3	0.0	-3.4	-13.323	-10.008
         594	1	198	4	0.0	-4.793	-15.749	-11.288
         595	1	199	1	0.0	-5.39	-11.455	-9.541
         596	1	199	3	0.0	-4.927	-9.852	-7.853
         597	1	199	4	0.0	-6.61	-10.727	-10.036
         598	1	200	1	0.0	-4.639	-11.667001	-5.822
         599	1	200	3	0.0	-2.481	-11.708	-4.816
         600	1	200	4	0.0	-5.792	-12.061	-4.894
         601	1	201	1	0.0	-2.039	-14.36	-5.29
         602	1	201	3	0.0	-1.236	-14.624	-7.523
         603	1	201	4	0.0	-2.401	-15.801	-4.969
         604	1	202	1	0.0	1.373	-13.998999	-6.859
         605	1	202	3	0.0	2.546	-15.513999	-5.42
         606	1	202	4	0.0	2.245	-12.750001	-6.701
         607	1	203	1	0.0	3.065	-17.332	-7.5269995
         608	1	203	3	0.0	3.022	-19.125	-5.9530005
         609	1	203	4	0.0	4.54	-17.158	-7.162
         610	1	204	1	0.0	0.169	-19.1	-5.76
         611	1	204	3	0.0	-0.358	-19.702	-3.521
         612	1	204	4	0.0	0.325	-20.55	-6.286
         613	1	205	1	0.0	1.656	-18.241	-2.362
         614	1	205	3	0.0	1.007	-16.692	-0.679
         615	1	205	4	0.0	3.062	-18.786	-2.104
         616	1	206	1	0.0	2.165	-14.503	-1.88
         617	1	206	3	0.0	0.316	-13.733	-3.2
         618	1	206	4	0.0	3.329	-13.749	-2.528
         619	1	207	1	0.0	-0.889	-12.414	-1.086
         620	1	207	3	0.0	-0.355	-10.129	-0.623
         621	1	207	4	0.0	-1.619	-12.498001	0.234
         622	1	208	1	0.0	-0.347	-9.376	-3.32
         623	1	208	3	0.0	-1.696	-10.001	-5.193
         624	1	208	4	0.0	1.075	-9.256	-3.946
         625	1	209	1	0.0	-3.005	-7.574	-5.311
         626	1	209	3	0.0	-1.566	-6.594	-6.945
         627	1	209	4	0.0	-3.697	-6.279	-4.908
         628	1	210	1	0.0	-2.289	-8.359	-8.955
         629	1	210	3	0.0	-3.868	-8.562	-10.749
         630	1	210	4	0.0	-1.83	-9.762	-9.326
         631	1	211	1	0.0	-4.595	-5.8810005	-10.639
         632	1	211	3	0.0	-4.238	-3.607	-10.067
         633	1	211	4	0.0	-5.979	-5.848	-10.006
         634	1	212	1	0.0	-2.881	-2.943	-12.298
         635	1	212	3	0.0	-3.608	-0.695	-12.018
         636	1	212	4	0.0	-2.085	-3.105	-13.608
         637	1	213	1	0.0	-6.086	-1.1	-13.096
         638	1	213	3	0.0	-6.724	0.601	-11.53
         639	1	213	4	0.0	-7.232	-1.612	-13.948