ITEM: TIMESTEP
0
ITEM: NUMBER OF ATOMS
2694
ITEM: BOX BOUNDS ss ss ss
-33.824 43.765
-64.252 58.529
-31.721 41.377
ITEM: ATOMS id type xs ys zs
1 1 0.571511 0.51398 0.113888
2 3 0.582183 0.528103 0.133095
3 4 0.574089 0.503115 0.123478
4 1 0.612819 0.530115 0.115489
5 3 0.609468 0.549214 0.12196
6 4 0.629574 0.527288 0.105037
7 1 0.59096 0.553742 0.0913295
8 3 0.575352 0.566651 0.108977
9 4 0.584271 0.553848 0.0715478
10 1 0.553274 0.551934 0.124121
11 3 0.555659 0.562742 0.15129
12 4 0.541146 0.542209 0.126556
13 1 0.583962 0.552105 0.164286
14 3 0.592017 0.569551 0.176188
15 4 0.597314 0.543121 0.168705
16 1 0.607895 0.576384 0.145161
17 3 0.597404 0.594009 0.152316
18 4 0.618296 0.576702 0.1275
19 1 0.565441 0.59093 0.137459
20 3 0.555633 0.602251 0.162152
21 4 0.550826 0.58729 0.124791
22 1 0.550439 0.585433 0.185764
23 3 0.559615 0.598325 0.208761
24 4 0.545167 0.574478 0.19363
25 1 0.593718 0.59361 0.205122
26 3 0.597494 0.612448 0.212742
27 4 0.611014 0.587884 0.201852
28 1 0.593718 0.619575 0.177734
29 3 0.580288 0.6354 0.191031
30 4 0.593976 0.620487 0.156899
31 1 0.548196 0.626164 0.193726
32 3 0.545915 0.6368 0.220923
33 4 0.53224 0.619338 0.190005
34 1 0.560917 0.621652 0.242962
35 3 0.573303 0.636524 0.259911
36 4 0.565969 0.610852 0.251922
37 1 0.600807 0.639342 0.237079
38 3 0.596373 0.658229 0.243823
39 4 0.616105 0.636996 0.224548
40 1 0.573019 0.661625 0.216914
41 3 0.559899 0.674103 0.237681
42 4 0.563263 0.661356 0.198938
43 1 0.539922 0.658962 0.254781
44 3 0.544652 0.669965 0.281581
45 4 0.528413 0.649213 0.258434
46 1 0.574063 0.659385 0.291691
47 3 0.583523 0.677157 0.301636
48 4 0.587454 0.650451 0.295713
49 1 0.595561 0.683257 0.268626
50 3 0.586385 0.701151 0.276806
51 5 0.588253 0.67748 0.274413
52 1 0.552785 0.698325 0.266451
53 3 0.545889 0.709637 0.292224
54 4 0.53697 0.694692 0.25604
55 1 0.544433 0.692966 0.316753
56 3 0.555865 0.7055 0.338751
57 4 0.541005 0.68184 0.325645
58 1 0.58962 0.701933 0.330146
59 3 0.593847 0.720942 0.335399
60 4 0.606284 0.695914 0.325563
61 1 0.585096 0.726985 0.301376
62 3 0.573251 0.743495 0.313771
63 4 0.582583 0.727417 0.280268
64 1 0.54277 0.734405 0.324523
65 3 0.530397 0.736946 0.353758
66 4 0.525642 0.730496 0.316479
67 1 0.556239 0.72666 0.372391
68 3 0.587094 0.725837 0.367849
69 4 0.546482 0.71652 0.378355
70 1 0.594221 0.724575 0.404785
71 3 0.611105 0.710932 0.420094
72 4 0.594981 0.73166 0.422365
73 1 0.592855 0.693601 0.406591
74 3 0.61269 0.692363 0.381228
75 4 0.577775 0.686295 0.400421
76 1 0.637397 0.681474 0.400969
77 3 0.626094 0.664117 0.391447
78 4 0.649293 0.678387 0.416564
79 1 0.640903 0.66516 0.357575
80 3 0.649319 0.646647 0.35146
81 4 0.644344 0.670658 0.33897
82 1 0.67748 0.646712 0.373676
83 3 0.673717 0.627695 0.37209
84 4 0.692714 0.650353 0.385359
85 1 0.653082 0.624926 0.400928
86 3 0.641534 0.610298 0.383458
87 4 0.644344 0.627125 0.419341
88 1 0.616827 0.622262 0.366741
89 3 0.621789 0.610339 0.341418
90 4 0.602315 0.630554 0.363293
91 1 0.647166 0.622523 0.326466
92 3 0.66097 0.605965 0.317095
93 4 0.658341 0.632044 0.319954
94 1 0.675302 0.601901 0.350529
95 3 0.669296 0.582997 0.344237
96 4 0.684504 0.603269 0.368779
97 1 0.636727 0.583364 0.358792
98 3 0.631443 0.570422 0.334524
99 4 0.621261 0.585938 0.371105
100 1 0.621196 0.585571 0.309926
101 3 0.633904 0.573313 0.287833
102 4 0.613257 0.595768 0.301198
103 1 0.666409 0.5811 0.291992
104 3 0.674683 0.56266 0.286328
105 4 0.681811 0.588666 0.295097
106 1 0.672234 0.556137 0.321623
107 3 0.661743 0.538373 0.315467
108 4 0.673833 0.556104 0.342622
109 1 0.629973 0.544832 0.304687
110 3 0.633982 0.532884 0.278913
111 4 0.611917 0.549556 0.308298
112 1 0.634587 0.548872 0.253783
113 3 0.653211 0.540084 0.232674
114 4 0.628298 0.558979 0.243646
115 1 0.683035 0.546469 0.248735
116 3 0.695872 0.529292 0.241744
117 4 0.69613 0.554394 0.256423
118 1 0.689325 0.520268 0.275274
119 3 0.660454 0.51398 0.269761
120 4 0.691451 0.5196 0.295754
121 1 0.671203 0.494002 0.256149
122 3 0.689982 0.47847 0.258133
123 4 0.671165 0.493179 0.235232
124 1 0.672827 0.470203 0.289447
125 3 0.701453 0.462563 0.29221
126 4 0.668561 0.46012 0.278092
127 1 0.71349 0.479301 0.312963
128 3 0.731831 0.47197 0.336028
129 5 0.695936 0.486345 0.316077
130 1 0.705332 0.464404 0.357014
131 3 0.721997 0.467133 0.384019
132 5 0.703412 0.458392 0.368135
133 1 0.711918 0.488276 0.388656
134 3 0.71206 0.483829 0.420326
135 4 0.708631 0.50033 0.383513
136 1 0.676462 0.482233 0.42283
137 3 0.67275 0.463687 0.414143
138 4 0.657967 0.486492 0.421284
139 1 0.680818 0.45586 0.448261
140 3 0.671835 0.461106 0.478399
141 4 0.699352 0.451642 0.450163
142 1 0.652786 0.442161 0.483515
143 3 0.665713 0.424496 0.481983
144 4 0.633595 0.440386 0.479179
145 1 0.667556 0.421376 0.518072
146 3 0.639897 0.412662 0.514884
147 4 0.669141 0.424553 0.538305
148 1 0.653675 0.392072 0.512025
149 3 0.650092 0.391478 0.544789
150 4 0.6657 0.382861 0.505924
151 1 0.620255 0.379595 0.542874
152 3 0.601889 0.3952 0.539851
153 5 0.630205 0.379909 0.546519
154 1 0.593744 0.395753 0.576486
155 3 0.617716 0.405845 0.588498
156 4 0.586346 0.390997 0.594271
157 1 0.605008 0.425685 0.576404
158 3 0.585753 0.434554 0.597732
159 4 0.600149 0.433487 0.561164
160 1 0.607341 0.432388 0.62698
161 3 0.593564 0.448538 0.638048
162 4 0.620668 0.427631 0.640223
163 1 0.618219 0.462205 0.626105
164 3 0.596309 0.475692 0.623629
165 4 0.636121 0.466953 0.622685
166 1 0.584555 0.470838 0.590509
167 3 0.556316 0.474039 0.602137
168 4 0.584787 0.466904 0.570877
169 1 0.552179 0.453955 0.616843
170 3 0.536764 0.463264 0.640469
171 4 0.552578 0.441673 0.620359
172 1 0.56508 0.468411 0.660387
173 3 0.549846 0.484831 0.667433
174 4 0.582479 0.467833 0.669649
175 1 0.560414 0.495818 0.637131
176 3 0.532614 0.504264 0.637418
177 4 0.571241 0.50002 0.621139
178 1 0.516297 0.48782 0.61921
179 3 0.492261 0.492063 0.638677
180 4 0.512663 0.478543 0.605653
181 1 0.502649 0.479187 0.66694
182 3 0.489515 0.493374 0.685121
183 4 0.510137 0.469959 0.678309
184 1 0.517676 0.506398 0.68545
185 3 0.496668 0.520879 0.685258
186 4 0.536442 0.510486 0.685559
187 1 0.492879 0.52109 0.648335
188 3 0.463274 0.525578 0.655025
189 4 0.496578 0.520708 0.627623
190 1 0.452538 0.504646 0.658732
191 3 0.433979 0.513092 0.680949
192 4 0.450579 0.492202 0.656899
193 1 0.456263 0.510739 0.709595
194 3 0.442163 0.527126 0.719609
195 4 0.470428 0.506536 0.722386
196 1 0.463726 0.540906 0.701524
197 3 0.439547 0.552691 0.698227
198 4 0.479604 0.546078 0.693152
199 1 0.427445 0.543146 0.667214
200 3 0.399902 0.547796 0.679854
201 4 0.426955 0.537779 0.648376
202 1 0.394399 0.527899 0.695505
203 3 0.379551 0.53944 0.717215
204 4 0.394476 0.515739 0.699746
205 1 0.406578 0.541598 0.740321
206 3 0.393574 0.558873 0.74697
207 5 0.407042 0.53872 0.738695
208 1 0.410264 0.569738 0.720375
209 3 0.384926 0.580847 0.719787
210 5 0.412314 0.575856 0.703123
211 1 0.368016 0.568671 0.69493
212 3 0.341144 0.572336 0.709814
213 4 0.364626 0.562367 0.677118
214 1 0.344508 0.556764 0.735506
215 3 0.331129 0.570251 0.754699
216 4 0.348026 0.545785 0.745068
217 1 0.361095 0.580293 0.764207
218 3 0.344868 0.596859 0.764426
219 4 0.379577 0.582476 0.76931
220 1 0.346531 0.600435 0.727845
221 3 0.317816 0.607244 0.731607
222 4 0.353375 0.601461 0.708268
223 1 0.301924 0.587607 0.725943
224 3 0.281573 0.595393 0.747107
225 4 0.297684 0.575969 0.719199
226 1 0.298096 0.588259 0.777709
227 3 0.287347 0.604833 0.790966
228 4 0.308562 0.5818 0.791184
229 1 0.313949 0.617392 0.779898
230 3 0.293779 0.63224 0.778079
231 4 0.331993 0.621464 0.774919
232 1 0.282231 0.627206 0.743988
233 3 0.253992 0.632028 0.755
234 4 0.282901 0.624738 0.723358
235 1 0.244661 0.611479 0.763933
236 3 0.227274 0.616382 0.78942
237 4 0.241748 0.599278 0.761881
238 1 0.253593 0.618149 0.813771
239 3 0.24604 0.634398 0.829476
240 4 0.266056 0.611324 0.825317
241 1 0.271804 0.646802 0.81466
242 3 0.255964 0.65379 0.788695
243 4 0.289886 0.650141 0.80864
244 1 0.236451 0.667986 0.808695
245 3 0.234505 0.683143 0.788804
246 4 0.224645 0.671993 0.823798
247 1 0.268479 0.688869 0.790788
248 3 0.276921 0.693308 0.760595
249 4 0.285028 0.692509 0.800542
250 1 0.276341 0.672018 0.74775
251 3 0.261931 0.663441 0.722975
252 4 0.288971 0.662464 0.748338
253 1 0.229556 0.67034 0.733057
254 3 0.218291 0.687142 0.721784
255 4 0.21409 0.669819 0.746135
256 1 0.230471 0.683656 0.686585
257 3 0.235407 0.666887 0.670853
258 4 0.242766 0.693487 0.685162
259 1 0.22587 0.674966 0.637281
260 3 0.245331 0.661707 0.62527
261 4 0.217531 0.681685 0.622178
262 1 0.273737 0.674567 0.628403
263 3 0.28834 0.657561 0.633041
264 4 0.285865 0.684479 0.629361
265 1 0.282308 0.656551 0.669239
266 3 0.277784 0.63733 0.668486
267 4 0.281689 0.659711 0.689362
268 1 0.245898 0.638226 0.653465
269 3 0.25483 0.62289 0.635489
270 4 0.22703 0.64106 0.649785
271 1 0.269587 0.635074 0.608402
272 3 0.291601 0.621481 0.606911
273 4 0.273376 0.643919 0.594298
274 1 0.310895 0.629503 0.634874
275 3 0.317455 0.611316 0.644108
276 4 0.320097 0.637501 0.647692
277 1 0.286806 0.608319 0.66233
278 3 0.289036 0.590213 0.650606
279 4 0.27076 0.610143 0.67389
280 1 0.271714 0.5944 0.619073
281 3 0.290544 0.581759 0.603874
282 4 0.258787 0.598953 0.60501
283 1 0.31739 0.596159 0.600509
284 3 0.335743 0.580904 0.606788
285 4 0.327778 0.606584 0.597718
286 1 0.333256 0.582777 0.643862
287 3 0.334016 0.563263 0.645408
288 4 0.332276 0.587452 0.663315
289 1 0.299746 0.560494 0.63787
290 3 0.30918 0.544954 0.621098
291 4 0.280027 0.562107 0.637706
292 1 0.315702 0.555868 0.589729
293 3 0.338231 0.542633 0.586829
294 4 0.314993 0.564118 0.574065
295 1 0.362397 0.554345 0.604504
296 3 0.373429 0.537559 0.616282
297 4 0.373416 0.563809 0.611097
298 1 0.350372 0.536117 0.644395
299 3 0.351725 0.517059 0.638567
300 4 0.337909 0.538846 0.659854
301 1 0.327611 0.517034 0.61174
302 3 0.342806 0.5034 0.594832
303 4 0.310959 0.519152 0.601562
304 1 0.367668 0.517246 0.58189
305 3 0.385415 0.501804 0.589305
306 4 0.376961 0.527126 0.57349
307 1 0.393741 0.508971 0.623177
308 3 0.396293 0.491534 0.637199
309 5 0.382245 0.511026 0.618524
310 1 0.361585 0.487005 0.636406
311 3 0.360927 0.468989 0.625188
312 4 0.344508 0.489587 0.645996
313 1 0.347214 0.474406 0.591877
314 3 0.357061 0.465691 0.564886
315 4 0.329132 0.47746 0.585201
316 1 0.381781 0.480775 0.556623
317 3 0.407558 0.470366 0.552724
318 4 0.381214 0.491762 0.546704
319 1 0.425434 0.480848 0.579414
320 3 0.443491 0.465487 0.582998
321 4 0.431775 0.48984 0.592438
322 1 0.423088 0.453099 0.603327
323 3 0.433618 0.437462 0.5878
324 4 0.409246 0.4502 0.617322
325 1 0.413551 0.439645 0.557909
326 3 0.437665 0.433609 0.540275
327 4 0.397801 0.441314 0.545788
328 1 0.452551 0.453661 0.538031
329 3 0.479939 0.444825 0.541615
330 4 0.455168 0.465903 0.535637
331 1 0.477735 0.443578 0.578662
332 3 0.492351 0.426475 0.574612
333 4 0.473894 0.446152 0.59884
334 1 0.46321 0.414755 0.568716
335 3 0.479449 0.404305 0.54758
336 4 0.444857 0.4103 0.569728
337 1 0.475957 0.418575 0.519303
338 3 0.504453 0.413989 0.509809
339 4 0.468468 0.426874 0.506047
340 1 0.520486 0.427159 0.534023
341 3 0.541288 0.412873 0.538989
342 4 0.525358 0.43795 0.543476
343 1 0.525281 0.404387 0.568634
344 3 0.534754 0.386249 0.563627
345 4 0.515086 0.403173 0.586364
346 1 0.51439 0.382592 0.533134
347 3 0.516465 0.379481 0.501135
348 4 0.496088 0.378397 0.531834
349 1 0.545322 0.393033 0.496566
350 3 0.536932 0.392992 0.465156
351 4 0.556071 0.382934 0.491778
352 1 0.510059 0.408435 0.470765
353 3 0.494026 0.401039 0.445826
354 4 0.519803 0.41539 0.45677
355 1 0.482891 0.383056 0.465252
356 3 0.467437 0.383699 0.493611
357 4 0.490907 0.371711 0.466743
358 1 0.435706 0.386868 0.476853
359 3 0.424132 0.369112 0.477729
360 4 0.422019 0.390777 0.462995
361 1 0.425975 0.366351 0.51431
362 3 0.400392 0.356366 0.521314
363 4 0.435874 0.367304 0.532381
364 1 0.379242 0.374366 0.520821
365 3 0.376329 0.36877 0.489521
366 4 0.373661 0.385955 0.525596
367 1 0.342484 0.36377 0.491518
368 3 0.343219 0.38203 0.479138
369 4 0.324879 0.361807 0.499891
370 1 0.341092 0.374586 0.443514
371 3 0.330923 0.391469 0.431831
372 4 0.341015 0.367394 0.426277
373 1 0.299682 0.390973 0.448302
374 3 0.294926 0.408996 0.458768
375 4 0.281767 0.386192 0.452954
376 1 0.320174 0.408923 0.484446
377 3 0.336285 0.425351 0.483214
378 4 0.327508 0.404851 0.502791
379 1 0.352756 0.420733 0.451257
380 3 0.350037 0.439856 0.446661
381 4 0.363131 0.414445 0.43692
382 1 0.321296 0.43997 0.426934
383 3 0.312119 0.456284 0.441626
384 4 0.307453 0.436102 0.413732
385 1 0.301589 0.446616 0.473077
386 3 0.312325 0.463028 0.486593
387 4 0.293753 0.43848 0.486853
388 1 0.344843 0.455298 0.491299
389 3 0.352395 0.473933 0.48606
390 4 0.360347 0.447846 0.494473
391 1 0.356185 0.472019 0.449479
392 3 0.345577 0.490442 0.449287
393 4 0.360257 0.467475 0.430422
394 1 0.311758 0.484896 0.449588
395 3 0.30793 0.501242 0.466907
396 4 0.294642 0.479154 0.446579
397 1 0.315431 0.492185 0.499617
398 3 0.328719 0.509077 0.508112
399 4 0.316192 0.484383 0.515992
400 1 0.359793 0.504337 0.491956
401 3 0.358543 0.523672 0.486689
402 4 0.375156 0.49822 0.484117
403 1 0.344031 0.52197 0.452803
404 3 0.329286 0.53852 0.460697
405 4 0.339662 0.518061 0.433487
406 1 0.30293 0.528551 0.478741
407 3 0.303986 0.54576 0.494501
408 4 0.290363 0.520121 0.486511
409 1 0.324466 0.538715 0.521601
410 3 0.337831 0.556145 0.524501
411 4 0.330988 0.531304 0.537142
412 1 0.360579 0.553172 0.49673
413 3 0.354857 0.571994 0.489753
414 4 0.37428 0.548122 0.484172
415 1 0.328384 0.567702 0.466634
416 3 0.315302 0.58391 0.478372
417 4 0.317326 0.562367 0.451982
418 1 0.301254 0.574364 0.508236
419 3 0.306912 0.591403 0.52301
420 4 0.29325 0.566195 0.521478
421 1 0.340422 0.586907 0.530931
422 3 0.343554 0.606112 0.525774
423 4 0.357228 0.581002 0.535582
424 1 0.351081 0.603986 0.489562
425 3 0.336414 0.621301 0.487633
426 4 0.357615 0.599604 0.470929
427 1 0.304309 0.612847 0.483666
428 3 0.293521 0.628281 0.49985
429 4 0.289062 0.60555 0.478194
430 1 0.301241 0.620699 0.533462
431 3 0.308265 0.639154 0.540617
432 4 0.303342 0.613401 0.550289
433 1 0.341543 0.638006 0.529372
434 3 0.337754 0.656404 0.51918
435 4 0.359896 0.634072 0.525486
436 1 0.323113 0.650858 0.486689
437 3 0.305894 0.666919 0.49145
438 4 0.318718 0.64488 0.468987
439 1 0.281135 0.656869 0.511273
440 3 0.278686 0.6735 0.527949
441 4 0.26853 0.648398 0.518961
442 1 0.305945 0.66924 0.550754
443 3 0.310508 0.688551 0.548497
444 4 0.318937 0.663156 0.563011
445 1 0.331503 0.687289 0.518906
446 3 0.318718 0.704686 0.511669
447 4 0.344482 0.683681 0.50472
448 1 0.29124 0.696044 0.493433
449 3 0.275477 0.711258 0.505417
450 4 0.279949 0.688967 0.481504
451 1 0.266262 0.701314 0.537101
452 3 0.268092 0.719191 0.550015
453 4 0.261171 0.69277 0.551479
454 1 0.302414 0.718214 0.557266
455 3 0.30302 0.737182 0.550207
456 4 0.320187 0.714093 0.563586
457 1 0.306899 0.73456 0.513844
458 3 0.289796 0.75067 0.511628
459 4 0.312222 0.730382 0.494897
460 1 0.258941 0.740033 0.511409
461 3 0.248167 0.755052 0.528824
462 4 0.244777 0.731612 0.507141
463 1 0.258735 0.747412 0.561821
464 3 0.263981 0.765583 0.571534
465 4 0.263349 0.739724 0.577499
466 1 0.295648 0.767383 0.555214
467 3 0.289216 0.785472 0.544721
468 4 0.314826 0.764165 0.553148
469 1 0.281793 0.779298 0.509631
470 3 0.261119 0.793763 0.508591
471 4 0.28321 0.773695 0.491217
472 1 0.233964 0.781383 0.520958
473 3 0.220843 0.77082 0.544721
474 4 0.221861 0.775478 0.507976
475 1 0.226965 0.785073 0.572122
476 3 0.201498 0.777995 0.586322
477 4 0.235407 0.794577 0.582342
478 1 0.179381 0.792118 0.569824
479 3 0.158863 0.777368 0.569783
480 4 0.171932 0.803072 0.562984
481 1 0.168026 0.769924 0.535651
482 3 0.160706 0.752397 0.547826
483 4 0.174458 0.769215 0.515896
484 1 0.192618 0.748202 0.561397
485 3 0.179845 0.738461 0.58624
486 4 0.212105 0.747599 0.563627
487 1 0.173904 0.756542 0.607075
488 3 0.148449 0.747355 0.617267
489 4 0.177358 0.767301 0.616734
490 1 0.12641 0.758904 0.595502
491 3 0.10437 0.745995 0.588087
492 4 0.117878 0.769256 0.588115
493 1 0.124464 0.734088 0.56416
494 3 0.140819 0.718181 0.555939
495 4 0.124464 0.736417 0.543585
496 1 0.151594 0.71397 0.591343
497 3 0.141425 0.715037 0.622042
498 4 0.170321 0.717334 0.594408
499 1 0.132931 0.693397 0.624066
500 3 0.149699 0.678248 0.612972
501 4 0.113263 0.692843 0.62252
502 1 0.142443 0.665559 0.642507
503 3 0.144118 0.650223 0.622603
504 4 0.138834 0.661764 0.66207
505 1 0.111253 0.652023 0.610208
506 3 0.12195 0.645377 0.581699
507 4 0.0917656 0.653929 0.608868
508 1 0.13346 0.66507 0.569537
509 3 0.157007 0.655354 0.556281
510 4 0.13471 0.677238 0.565501
511 1 0.176752 0.655175 0.586856
512 3 0.185529 0.637648 0.576213
513 4 0.185323 0.658408 0.604887
514 1 0.158901 0.626742 0.592438
515 3 0.159881 0.615144 0.565843
516 4 0.145008 0.623272 0.606323
517 1 0.140832 0.628322 0.543982
518 3 0.159275 0.622018 0.520165
519 4 0.127441 0.63641 0.536649
520 1 0.184627 0.63689 0.526622
521 3 0.203805 0.622556 0.517661
522 4 0.194383 0.647234 0.53141
523 1 0.205738 0.613458 0.55167
524 3 0.206885 0.596452 0.535213
525 4 0.207143 0.612106 0.572519
526 1 0.172357 0.594074 0.531779
527 3 0.17844 0.585824 0.503064
528 4 0.152844 0.594538 0.535008
529 1 0.182229 0.605004 0.484213
530 3 0.204668 0.595947 0.46781
531 4 0.178634 0.616561 0.477455
532 1 0.229955 0.600402 0.49249
533 3 0.239802 0.582932 0.481969
534 4 0.240962 0.605818 0.507415
535 1 0.221977 0.571147 0.506375
536 3 0.219181 0.557456 0.483529
537 4 0.214103 0.567221 0.524173
538 1 0.1912 0.566928 0.466812
539 3 0.203457 0.559745 0.439013
540 4 0.174741 0.573102 0.463104
541 1 0.225393 0.576685 0.433774
542 3 0.244532 0.562725 0.422898
543 4 0.232842 0.588308 0.432611
544 1 0.25898 0.558735 0.456168
545 3 0.262125 0.540564 0.444226
546 4 0.265592 0.559745 0.475909
547 1 0.230174 0.533706 0.454595
548 3 0.2306 0.523778 0.426236
549 4 0.213703 0.531955 0.465786
550 1 0.218265 0.540206 0.405565
551 3 0.233899 0.533584 0.379764
552 5 0.221036 0.539391 0.395528
553 1 0.265308 0.540751 0.392158
554 3 0.27781 0.523689 0.383567
555 4 0.278828 0.549328 0.398328
556 1 0.276921 0.514901 0.417809
557 3 0.271675 0.495883 0.415538
558 4 0.281483 0.515112 0.43811
559 1 0.237907 0.497414 0.405059
560 3 0.242753 0.48075 0.389204
561 4 0.219129 0.501348 0.404129
562 1 0.253696 0.488724 0.357411
563 3 0.271972 0.474031 0.349353
564 4 0.258142 0.49695 0.342349
565 1 0.292554 0.475041 0.379066
566 3 0.291781 0.455641 0.374744
567 4 0.304476 0.479561 0.394142
568 1 0.268427 0.450501 0.399012
569 3 0.25599 0.436517 0.380503
570 4 0.258696 0.450794 0.417057
571 1 0.237959 0.450257 0.358683
572 3 0.245473 0.436403 0.336603
573 4 0.226811 0.459697 0.351487
574 1 0.274304 0.446747 0.324592
575 3 0.288211 0.42926 0.32295
576 4 0.285324 0.455983 0.316657
577 1 0.301241 0.430026 0.357342
578 3 0.300842 0.410609 0.357616
579 5 0.290389 0.434804 0.368329
580 1 0.266739 0.408825 0.366002
581 3 0.258245 0.394222 0.346849
582 4 0.25086 0.410202 0.378109
583 1 0.257201 0.406154 0.315481
584 3 0.272552 0.392805 0.298079
585 4 0.24894 0.414665 0.303209
586 1 0.303677 0.40389 0.299064
587 3 0.323822 0.413167 0.318162
588 4 0.307698 0.411147 0.282552
589 1 0.337264 0.394776 0.333169
590 3 0.366663 0.399972 0.335851
591 4 0.337599 0.383642 0.342444
592 1 0.373455 0.399402 0.299201
593 3 0.392117 0.414795 0.29704
594 4 0.374164 0.395037 0.279529
595 1 0.366469 0.43001 0.303428
596 3 0.372437 0.443065 0.326521
597 4 0.350746 0.435939 0.296657
598 1 0.376149 0.428283 0.354305
599 3 0.403962 0.427949 0.368068
600 4 0.361288 0.425074 0.367
601 1 0.409659 0.40635 0.361583
602 3 0.420008 0.404199 0.331035
603 4 0.404993 0.394613 0.365974
604 1 0.453634 0.40929 0.340119
605 3 0.468752 0.396951 0.359805
606 4 0.464873 0.419462 0.34228
607 1 0.475441 0.382144 0.33098
608 3 0.474887 0.367541 0.352513
609 4 0.494452 0.383561 0.335974
610 1 0.438116 0.367744 0.355153
611 3 0.431324 0.362841 0.385783
612 4 0.440127 0.355935 0.347958
613 1 0.457281 0.37474 0.401639
614 3 0.448917 0.387356 0.424663
615 4 0.475402 0.370302 0.405168
616 1 0.463842 0.405185 0.408233
617 3 0.440011 0.411456 0.390175
618 4 0.478844 0.411326 0.399368
619 1 0.42448 0.422199 0.419095
620 3 0.431363 0.440809 0.425429
621 4 0.415072 0.421515 0.437153
622 1 0.431466 0.446942 0.388533
623 3 0.414079 0.441852 0.36291
624 4 0.449793 0.447919 0.379969
625 1 0.397208 0.461619 0.361296
626 3 0.415755 0.4696 0.338942
627 4 0.38829 0.472166 0.366809
628 1 0.406436 0.455225 0.311445
629 3 0.386086 0.453572 0.286903
630 4 0.412352 0.443798 0.30637
631 1 0.376716 0.475407 0.288407
632 3 0.381317 0.493928 0.296232
633 4 0.358878 0.475676 0.297067
634 1 0.398807 0.499336 0.265712
635 3 0.389437 0.517645 0.269542
636 4 0.409066 0.498017 0.247791
637 1 0.357499 0.514347 0.254795
638 3 0.349276 0.528201 0.276218
639 4 0.342729 0.510177 0.243139
640 1 0.341608 0.514102 0.303688
641 3 0.352511 0.527223 0.324934
642 4 0.334545 0.504353 0.314154
643 1 0.386099 0.52087 0.321527
644 3 0.390919 0.540051 0.32585
645 4 0.40248 0.514013 0.319585
646 1 0.389849 0.545149 0.289652
647 3 0.377889 0.561887 0.301732
648 4 0.391989 0.544563 0.268954
649 1 0.344417 0.556047 0.296232
650 3 0.339236 0.566448 0.323607
651 4 0.328036 0.55125 0.287792
652 1 0.345977 0.549873 0.346767
653 3 0.356597 0.563336 0.367356
654 5 0.346248 0.544498 0.366072
655 1 0.38847 0.564509 0.351911
656 3 0.38682 0.583576 0.359244
657 4 0.405521 0.561447 0.343033
658 1 0.372372 0.589578 0.327341
659 3 0.357615 0.602658 0.345468
660 4 0.368764 0.590645 0.306848
661 1 0.328049 0.590816 0.349202
662 3 0.326296 0.599401 0.378451
663 4 0.312647 0.583567 0.344059
664 1 0.33952 0.582085 0.39707
665 3 0.355862 0.588984 0.42179
666 4 0.339236 0.570153 0.402829
667 1 0.382864 0.595833 0.401639
668 3 0.388186 0.614932 0.403007
669 4 0.398716 0.588299 0.400517
670 1 0.396551 0.617253 0.367288
671 3 0.387851 0.635799 0.370147
672 4 0.404078 0.615103 0.34845
673 1 0.354238 0.632321 0.362513
674 3 0.350578 0.646476 0.384744
675 4 0.338141 0.628281 0.352116
676 1 0.345796 0.634422 0.414033
677 3 0.360644 0.64826 0.430627
678 4 0.341273 0.624584 0.425976
679 1 0.392762 0.641215 0.421598
680 3 0.399902 0.6602 0.421311
681 4 0.408125 0.633958 0.416838
682 1 0.390197 0.663531 0.385879
683 3 0.381188 0.68114 0.397111
684 4 0.386408 0.662008 0.365564
685 1 0.349508 0.674526 0.408753
686 3 0.354741 0.687859 0.432269
687 4 0.332341 0.668393 0.410914
688 1 0.372617 0.67407 0.454472
689 3 0.387246 0.690522 0.462885
690 4 0.379861 0.664085 0.464035
691 1 0.412043 0.688657 0.436633
692 3 0.410509 0.708245 0.437796
693 4 0.425163 0.68399 0.423103
694 1 0.385235 0.709866 0.412214
695 3 0.377927 0.725552 0.43045
696 4 0.373674 0.707968 0.395442
697 1 0.355875 0.714891 0.452858
698 3 0.364639 0.727181 0.476593
699 4 0.342497 0.707137 0.460861
700 1 0.394231 0.716666 0.484555
701 3 0.405225 0.734666 0.489234
702 4 0.407339 0.70765 0.488645
703 1 0.416928 0.737052 0.454445
704 3 0.409813 0.755939 0.458959
705 4 0.423875 0.735228 0.435073
706 1 0.375672 0.753667 0.450436
707 3 0.369692 0.766935 0.47346
708 4 0.358968 0.750312 0.441243
709 1 0.369885 0.752584 0.501792
710 3 0.381832 0.767871 0.517839
711 4 0.368209 0.742126 0.513201
712 1 0.415136 0.762993 0.510096
713 3 0.419119 0.782401 0.50907
714 4 0.432033 0.756689 0.506525
715 1 0.408628 0.784527 0.473761
716 3 0.398149 0.801736 0.484801
717 4 0.404606 0.78236 0.453788
718 1 0.366482 0.794097 0.494446
719 3 0.368738 0.807812 0.517812
720 4 0.349418 0.787516 0.49502
721 1 0.384887 0.795025 0.542532
722 3 0.397415 0.812178 0.551438
723 4 0.391692 0.785374 0.55364
724 1 0.425344 0.810378 0.529248
725 3 0.424635 0.829778 0.525965
726 4 0.440771 0.805515 0.519741
727 1 0.402467 0.830088 0.497647
728 3 0.388805 0.845986 0.509576
729 4 0.394244 0.827514 0.478796
730 1 0.369189 0.835553 0.534351
731 3 0.375221 0.849969 0.555515
732 4 0.3567 0.827481 0.543407
733 1 0.406024 0.841979 0.566596
734 3 0.415793 0.860451 0.567197
735 4 0.420253 0.834315 0.572984
736 1 0.425047 0.861127 0.53115
737 3 0.414698 0.879574 0.531779
738 4 0.432084 0.858032 0.51234
739 1 0.381459 0.874459 0.523311
740 3 0.370336 0.888411 0.542819
741 4 0.365696 0.869117 0.514734
742 1 0.377128 0.877864 0.574475
743 3 0.387117 0.894503 0.588183
744 4 0.376252 0.868823 0.588648
745 1 0.42091 0.891091 0.581247
746 3 0.424132 0.909994 0.574339
747 4 0.437704 0.884599 0.58267
748 1 0.427844 0.907078 0.537443
749 3 0.407236 0.897574 0.518756
750 4 0.447009 0.907307 0.532244
751 1 0.407584 0.913146 0.491806
752 3 0.40904 0.909595 0.459944
753 5 0.418023 0.89119 0.482968
754 1 0.438335 0.897329 0.461695
755 3 0.423527 0.880486 0.468275
756 4 0.456985 0.894471 0.465799
757 1 0.413938 0.877058 0.432502
758 3 0.425666 0.87845 0.402145
759 4 0.395468 0.88069 0.428411
760 1 0.432046 0.856077 0.39945
761 3 0.417688 0.839348 0.40666
762 4 0.450399 0.852086 0.403034
763 1 0.400959 0.838411 0.373526
764 3 0.414814 0.8346 0.345016
765 4 0.384745 0.843388 0.364976
766 1 0.419544 0.812894 0.351583
767 3 0.391653 0.810793 0.337752
768 4 0.424454 0.80352 0.364114
769 1 0.402944 0.799431 0.30834
770 3 0.395997 0.785537 0.330652
771 4 0.415587 0.796231 0.293018
772 1 0.371316 0.776081 0.308996
773 3 0.373429 0.757373 0.316137
774 5 0.382103 0.757997 0.322155
775 1 0.404542 0.754555 0.298955
776 3 0.418732 0.758912 0.327095
777 4 0.418784 0.755166 0.284659
778 1 0.415729 0.738445 0.341336
779 3 0.441132 0.742623 0.358587
780 4 0.409195 0.726969 0.345345
781 1 0.463751 0.735757 0.332745
782 3 0.482079 0.750002 0.343785
783 4 0.472451 0.729437 0.317464
784 1 0.468146 0.765851 0.323087
785 3 0.46959 0.778467 0.348094
786 4 0.461367 0.772229 0.306835
787 1 0.4409 0.770372 0.365523
788 3 0.455902 0.773507 0.393663
789 4 0.423204 0.76568 0.369053
790 1 0.47441 0.754693 0.392309
791 3 0.497687 0.764988 0.404991
792 4 0.479888 0.742778 0.38919
793 1 0.509557 0.772603 0.372199
794 3 0.51622 0.789389 0.38763
795 4 0.514738 0.773418 0.352226
796 1 0.483857 0.797623 0.385742
797 3 0.487453 0.805255 0.415648
798 4 0.466432 0.801117 0.378246
799 1 0.478663 0.786677 0.43402
800 3 0.500574 0.791588 0.455621
801 4 0.469938 0.776081 0.439862
802 1 0.526866 0.782409 0.436742
803 3 0.544368 0.797436 0.446743
804 4 0.537602 0.774297 0.425525
805 1 0.534431 0.810964 0.4193
806 3 0.535926 0.825356 0.441585
807 4 0.52965 0.815468 0.400503
808 1 0.503744 0.821902 0.455129
809 3 0.515279 0.826708 0.48435
810 4 0.484373 0.819712 0.457003
811 1 0.526673 0.806257 0.49238
812 3 0.550967 0.814637 0.506826
813 4 0.527755 0.79395 0.495034
814 1 0.56932 0.816975 0.475567
815 3 0.579193 0.834274 0.487168
816 4 0.577814 0.814637 0.457318
817 1 0.551148 0.845693 0.475772
818 3 0.552127 0.856541 0.502996
819 4 0.536945 0.850156 0.463405
820 1 0.534354 0.841857 0.523968
821 3 0.553932 0.847053 0.548086
822 4 0.520899 0.833647 0.530534
823 1 0.577659 0.831391 0.540152
824 3 0.601902 0.842712 0.547265
825 4 0.585173 0.820208 0.536239
826 1 0.601284 0.853862 0.514611
827 3 0.606001 0.872309 0.522463
828 4 0.60314 0.854807 0.493817
829 1 0.573367 0.875714 0.536321
830 3 0.559886 0.880576 0.564749
831 4 0.556252 0.878483 0.527443
832 1 0.581719 0.868424 0.585967
833 3 0.577492 0.883834 0.605762
834 4 0.592816 0.858993 0.592944
835 1 0.608514 0.893053 0.598744
836 3 0.595252 0.91019 0.604353
837 4 0.627795 0.894267 0.595434
838 1 0.583021 0.913928 0.571384
839 3 0.558687 0.921836 0.585857
840 4 0.581474 0.913659 0.550384
841 1 0.541237 0.902835 0.590782
842 3 0.531119 0.909913 0.619114
843 4 0.533426 0.89153 0.58769
844 1 0.559809 0.904366 0.638622
845 3 0.557128 0.921079 0.654874
846 4 0.575082 0.897883 0.646009
847 1 0.573419 0.933467 0.628909
848 3 0.553287 0.947427 0.636721
849 4 0.586243 0.93723 0.614271
850 1 0.528619 0.940724 0.612301
851 3 0.507752 0.946124 0.634764
852 4 0.519996 0.936774 0.594886
853 1 0.50792 0.927016 0.653027
854 3 0.504711 0.937075 0.680525
855 4 0.507701 0.914848 0.657528
856 1 0.538517 0.942336 0.684
857 3 0.529727 0.959806 0.69504
858 4 0.558185 0.941522 0.684136
859 1 0.525023 0.968692 0.661468
860 3 0.500226 0.977896 0.6727
861 4 0.528322 0.971966 0.641618
862 1 0.478083 0.960955 0.667583
863 3 0.463184 0.965043 0.69519
864 4 0.468623 0.951662 0.658294
865 1 0.486319 0.954993 0.717612
866 3 0.484515 0.968562 0.740882
867 4 0.49864 0.946368 0.725492
868 1 0.504569 0.983532 0.72281
869 3 0.488961 0.999674 0.729227
870 4 0.519855 0.988337 0.712441
871 1 0.460864 0.994682 0.707393
872 3 0.432445 0.996482 0.718939
873 4 0.45384 0.993297 0.68809
874 1 0.437962 0.983206 0.749583
875 3 0.407403 0.980901 0.744918
876 4 0.433 0.993207 0.761047
877 1 0.411154 0.963178 0.722797
878 3 0.416825 0.950082 0.74645
879 4 0.415677 0.960499 0.70296
880 1 0.387735 0.938158 0.738584
881 3 0.407532 0.927815 0.719568
882 4 0.369279 0.935389 0.73318
883 1 0.411012 0.91142 0.744877
884 3 0.39726 0.896914 0.761758
885 4 0.425434 0.910727 0.759104
886 1 0.379345 0.888525 0.732701
887 3 0.396164 0.873832 0.720854
888 4 0.369047 0.889307 0.714958
889 1 0.397866 0.863415 0.753783
890 3 0.396087 0.845237 0.742277
891 4 0.401346 0.862259 0.774112
892 1 0.36143 0.845155 0.738187
893 3 0.366083 0.832067 0.714671
894 5 0.371354 0.818088 0.724852
895 1 0.37263 0.84689 0.687926
896 3 0.392491 0.834364 0.674834
897 4 0.372076 0.857054 0.676079
898 1 0.418912 0.839625 0.697789
899 3 0.42573 0.820624 0.694219
900 4 0.431324 0.84575 0.710539
901 1 0.405895 0.814116 0.722783
902 3 0.398343 0.797786 0.706394
903 4 0.398098 0.813456 0.741977
904 1 0.372991 0.807503 0.686188
905 3 0.382709 0.79553 0.662139
906 4 0.357963 0.81454 0.680237
907 1 0.406578 0.809791 0.64865
908 3 0.423475 0.793698 0.642863
909 4 0.415304 0.820388 0.642193
910 1 0.437755 0.792851 0.676763
911 3 0.437085 0.773442 0.671865
912 4 0.445321 0.795604 0.69545
913 1 0.404142 0.77086 0.683671
914 3 0.401861 0.756933 0.660989
915 4 0.387387 0.771813 0.694561
916 1 0.393226 0.770469 0.633342