LAMMPS protain data file

        8634  atoms
       11502  bonds
           0  angles
           0  dihedrals
           0  impropers

           5  atom types
           5  bond types
           0  angle types
           0  dihedral types
           0  improper types

-200.0	200.0	xlo xhi
-200.0	200.0	ylo yhi
-200.0	200.0	zlo zhi

Masses

           1	27.0
           2	14.0
           3	28.0
           4	60.0
           5	60.0

Atoms

           1	1	1	1	0.0	87.43	144.48	109.01
           2	1	1	3	0.0	85.3	145.41	109.74
           3	1	1	4	0.0	87.079994	143.12	108.28999
           4	1	2	1	0.0	85.23	147.5	108.04
           5	1	2	3	0.0	85.37	147.42	105.62999
           6	1	2	4	0.0	85.66	148.95	108.41999
           7	1	3	1	0.0	82.7	148.16	105.19
           8	1	3	3	0.0	82.19	146.64	103.31
           9	1	3	4	0.0	83.52	149.11	104.26
          10	1	4	1	0.0	81.29	144.48	104.96
          11	1	4	3	0.0	80.26	143.66	103.020004
          12	1	4	4	0.0	80.8	143.69	106.26
          13	1	5	1	0.0	78.03	145.43	103.08999
          14	1	5	3	0.0	78.1	145.2	100.600006
          15	1	5	4	0.0	77.1	146.51	103.64
          16	1	6	1	0.0	80.15	147.16	100.4
          17	1	6	3	0.0	80.93	145.73	98.61
          18	1	6	4	0.0	80.97	148.48	100.56
          19	1	7	1	0.0	82.64	144.09	100.28
          20	1	7	3	0.0	81.95	142.4	98.700005
          21	1	7	4	0.0	83.46	143.54	101.52
          22	1	8	1	0.0	79.65	141.66	99.99
          23	1	8	3	0.0	78.61	141.13	97.84
          24	1	8	4	0.0	78.68	141.41	101.16001
          25	1	9	1	0.0	77.92	143.66	97.33
          26	1	9	3	0.0	78.39	143.09	95.14001
          27	1	9	4	0.0	77.39	145.1	97.490005
          28	1	10	1	0.0	81.11	143.77	95.20999
          29	1	10	3	0.0	81.33	141.99	93.62999
          30	1	10	4	0.0	82.48	144.43	95.61
          31	1	11	1	0.0	81.57	139.95	95.43
          32	1	11	3	0.0	80.37	138.45	93.96
          33	1	11	4	0.0	81.89	139.37	96.82
          34	1	12	1	0.0	77.92	139.26	94.73
          35	1	12	3	0.0	77.66	138.99	92.27
          36	1	12	4	0.0	76.7	139.69	95.61
          37	1	13	1	0.0	78.14	141.74	91.74
          38	1	13	3	0.0	78.75	140.59	89.74999
          39	1	13	4	0.0	78.5	143.27	91.98
          40	1	14	1	0.0	81.43	139.95	90.58
          41	1	14	3	0.0	81.26	138.13	88.979996
          42	1	14	4	0.0	82.77	139.9	91.340004
          43	1	15	1	0.0	79.63	136.53	90.46
          44	1	15	3	0.0	78.59	135.95	88.33
          45	1	15	4	0.0	79.2	135.72	91.71001
          46	1	16	1	0.0	76.75	137.88	88.41999
          47	1	16	3	0.0	77.12	137.92	86.09
          48	1	16	4	0.0	75.63	138.85	88.84
          49	1	17	1	0.0	79.39	139.71	86.27
          50	1	17	3	0.0	79.69	138.46	84.31
          51	1	17	4	0.0	80.39	140.75	86.76999
          52	1	18	1	0.0	80.83	136.25	85.44
          53	1	18	3	0.0	79.7	135.1	83.63
          54	1	18	4	0.0	81.88	135.39	86.14
          55	1	19	1	0.0	77.36	134.69	84.9
          56	1	19	3	0.0	76.62	134.86	82.52
          57	1	19	4	0.0	76.17	134.49	85.89
          58	1	20	1	0.0	76.46	137.57	82.48
          59	1	20	3	0.0	77.19	137.36	80.29
          60	1	20	4	0.0	76.21	139.06	82.97
          61	1	21	1	0.0	79.94	137.21	80.89
          62	1	21	3	0.0	80.28	135.73	79.06
          63	1	21	4	0.0	81.3	137.61	81.39
          64	1	22	1	0.0	79.47	133.37	80.45
          65	1	22	3	0.0	78.25	132.9	78.48
          66	1	22	4	0.0	79.4	132.25	81.52
          67	1	23	1	0.0	75.99	134.25	79.11
          68	1	23	3	0.0	75.67	134.64	76.8
          69	1	23	4	0.0	74.81	134.98	79.79
          70	1	24	1	0.0	77.68	136.61	76.56
          71	1	24	3	0.0	78.57	135.8	74.52
          72	1	24	5	0.0	77.26	129.11221959	71.00250712
          73	1	25	1	0.0	80.19	133.76	75.68
          74	1	25	3	0.0	79.54	132.67	73.67
          75	1	25	4	0.0	81.07	133.04	76.73
          76	1	26	1	0.0	77.27	131.51	74.84
          77	1	26	3	0.0	76.32	131.77	72.6
          78	1	26	4	0.0	76.31	130.91	75.91
          79	1	27	1	0.0	75.6	134.4	72.87
          80	1	27	3	0.0	76.21	134.59	70.48
          81	1	27	4	0.0	75.28	135.76	73.63
          82	1	28	1	0.0	78.88	134.7	70.93
          83	1	28	3	0.0	79.08	133.34	68.97
          84	1	28	4	0.0	80.27	135.14	71.55
          85	1	29	1	0.0	79.27	130.97	70.4
          86	1	29	3	0.0	78.18	129.96	68.45
          87	1	29	4	0.0	79.49	129.93	71.51
          88	1	30	1	0.0	75.61	130.48	69.28
          89	1	30	3	0.0	74.59	130.91	67.07
          90	1	30	4	0.0	74.35	130.54	70.3
          91	1	31	1	0.0	75.62	133.51	67.01
          92	1	31	3	0.0	76.95	134.62	65.38
          93	1	31	4	0.0	75.19	134.88	67.62
          94	1	32	1	0.0	79.11	132.7	65.48
          95	1	32	3	0.0	78.35	132.4	63.159996
          96	1	32	4	0.0	80.0	131.42	65.74
          97	1	33	1	0.0	80.17	134.16	62.109997
          98	1	33	3	0.0	80.95	132.04	61.28
          99	1	33	4	0.0	81.29	135.2	61.93
         100	1	34	1	0.0	79.88	132.44	58.71
         101	1	34	3	0.0	81.3	132.0	56.809998
         102	1	34	4	0.0	78.61	132.65	57.76
         103	1	35	1	0.0	83.14	134.03	57.52
         104	1	35	3	0.0	84.51	132.12	57.82
         105	1	35	4	0.0	83.85	135.24	58.31
         106	1	36	1	0.0	85.33	131.99	55.15
         107	1	36	3	0.0	87.24	130.77	55.98
         108	1	36	4	0.0	85.25	132.06	53.61
         109	1	37	1	0.0	88.5	132.9	57.15
         110	1	37	3	0.0	89.21	131.63	58.91
         111	1	37	4	0.0	89.08	134.29	57.27
         112	1	38	1	0.0	86.83	131.62	60.31
         113	1	38	3	0.0	87.01001	129.27	60.72
         114	1	38	4	0.0	85.76	132.41	61.13
         115	1	39	1	0.0	85.71	128.44	58.360004
         116	1	39	3	0.0	87.36	126.69001	58.67
         117	1	39	4	0.0	84.92	128.36	56.99
         118	1	40	1	0.0	89.44	128.13	57.6
         119	1	40	3	0.0	91.399994	127.61	58.91
         120	1	40	4	0.0	90.17	129.04	56.54
         121	1	41	1	0.0	90.11	128.65	61.379997
         122	1	41	3	0.0	92.08	129.49	62.489998
         123	1	41	4	0.0	90.25001	127.13	61.950005
         124	1	42	1	0.0	92.73999	131.46	60.73
         125	1	42	3	0.0	93.03	133.8	61.060005
         126	1	42	4	0.0	93.52	131.54	59.45
         127	1	43	1	0.0	90.55	134.37	61.91
         128	1	43	3	0.0	88.52	134.33	63.15
         129	1	43	4	0.0	89.74999	134.95	60.72
         130	1	44	1	0.0	89.38	132.25	64.87
         131	1	44	3	0.0	89.23001	132.17	67.34
         132	1	44	4	0.0	89.810005	130.76	64.6
         133	1	45	1	0.0	90.85	134.32	67.83
         134	1	45	3	0.0	89.76	134.19	69.93
         135	1	45	4	0.0	91.94	135.43	67.55
         136	1	46	1	0.0	87.73	135.91	69.48
         137	1	46	3	0.0	86.23	134.71	70.92
         138	1	46	4	0.0	87.13	137.18	69.0
         139	1	47	1	0.0	85.76	132.68	69.07
         140	1	47	3	0.0	85.76	131.09	70.88
         141	1	47	4	0.0	85.35	131.97	67.76
         142	1	48	1	0.0	88.65	130.88	70.66
         143	1	48	3	0.0	88.48	130.75	73.09
         144	1	48	4	0.0	90.09	130.81	70.13
         145	1	49	1	0.0	88.77	133.36	73.48
         146	1	49	3	0.0	87.51	133.2	75.39
         147	1	49	4	0.0	89.26	134.8	73.14
         148	1	50	1	0.0	84.89	133.04	74.13
         149	1	50	3	0.0	84.35	131.36	75.75
         150	1	50	4	0.0	83.85	133.29	72.95
         151	1	51	1	0.0	85.47	129.37	74.71
         152	1	51	3	0.0	86.11	128.92	76.99
         153	1	51	4	0.0	85.61	128.12	73.79
         154	1	52	1	0.0	88.73999	129.8	76.79
         155	1	52	3	0.0	88.46	130.12	79.16
         156	1	52	4	0.0	90.01	130.42	76.2
         157	1	53	1	0.0	87.16	132.6	79.14
         158	1	53	3	0.0	86.16	131.64	81.06
         159	1	53	4	0.0	86.71	133.94	78.43
         160	1	54	1	0.0	84.08	130.28	79.6
         161	1	54	3	0.0	83.94	128.56	81.21
         162	1	54	4	0.0	83.12	129.93	78.41
         163	1	55	1	0.0	86.29	127.16	80.41
         164	1	55	3	0.0	86.63	127.05	82.76
         165	1	55	4	0.0	87.38	126.51999	79.47
         166	1	56	1	0.0	88.27	129.24	82.92
         167	1	56	3	0.0	87.26001	129.38	85.15
         168	1	56	4	0.0	89.240005	130.39	82.61
         169	1	57	1	0.0	85.01	130.68	84.34
         170	1	57	3	0.0	83.93	129.61	86.14
         171	1	57	5	0.0	86.17	123.30743739	79.33211188
         172	1	58	1	0.0	83.62	127.12	84.86
         173	1	58	3	0.0	83.87	126.04	87.0
         174	1	58	4	0.0	83.35	126.09	83.62
         175	1	59	1	0.0	86.63	126.24	87.05
         176	1	59	3	0.0	86.85	126.9	89.33
         177	1	59	4	0.0	88.0	125.869995	86.41
         178	1	60	1	0.0	86.72	129.64	88.8
         179	1	60	3	0.0	85.67	130.06	90.91
         180	1	60	4	0.0	86.99	130.93	88.04
         181	1	61	1	0.0	83.12	129.86	89.92
         182	1	61	3	0.0	82.41	129.8	92.21
         183	1	61	4	0.0	81.9	129.79	88.98999
         184	1	62	1	0.0	83.12	127.29	92.76
         185	1	62	3	0.0	83.89	127.92	94.83999
         186	1	62	4	0.0	83.05	125.77	92.57
         187	1	63	1	0.0	86.55	128.8	93.86
         188	1	63	3	0.0	86.38999	130.48	95.54
         189	1	63	4	0.0	87.87	128.79	93.07
         190	1	64	1	0.0	85.02	132.29	93.94
         191	1	64	3	0.0	84.05	132.92	96.09
         192	1	64	4	0.0	84.45	132.98	92.7
         193	1	65	1	0.0	81.87	131.17	95.86
         194	1	65	3	0.0	82.06	130.98	98.31
         195	1	65	4	0.0	80.86	130.13	95.29
         196	1	66	1	0.0	84.06	129.2	98.34
         197	1	66	3	0.0	84.92	130.33	100.21
         198	1	66	4	0.0	84.6	127.82	98.05001
         199	1	67	1	0.0	86.380005	132.16	98.75
         200	1	67	3	0.0	85.81	133.2	100.81
         201	1	67	4	0.0	87.05	133.02	97.64
         202	1	68	1	0.0	83.57	134.51	99.88
         203	1	68	3	0.0	82.48	134.49	101.97
         204	1	68	4	0.0	82.68	135.29	98.88
         205	1	69	1	0.0	81.76	131.67	101.85
         206	1	69	3	0.0	82.05	131.67	104.27
         207	1	69	4	0.0	81.46	130.19	101.299995
         208	1	70	1	0.0	84.93	131.49	103.96999
         209	1	70	3	0.0	85.04	133.89	103.63
         210	1	70	4	0.0	86.3	130.9	103.48
         211	1	71	1	0.0	86.14	134.31	106.04
         212	1	71	3	0.0	88.34	134.02	104.93
         213	1	71	5	0.0	85.64	126.66097949	100.04258305
         214	1	72	1	0.0	88.97	136.78	105.10999
         215	1	72	3	0.0	90.04	136.68	107.26001
         216	1	72	4	0.0	88.76	138.32	105.05999
         217	1	73	1	0.0	92.16999	135.04	106.50001
         218	1	73	3	0.0	94.26	133.88	106.130005
         219	1	73	4	0.0	91.68	134.04	107.62
         220	1	74	1	0.0	93.87999	133.26	103.44
         221	1	74	3	0.0	94.450005	130.96	103.11
         222	1	74	4	0.0	94.05001	133.84	101.98
         223	1	75	1	0.0	91.94	129.95	103.27999
         224	1	75	3	0.0	92.58	127.89	102.28
         225	1	75	4	0.0	90.46	130.02	103.61
         226	1	76	1	0.0	92.55	128.7	99.66
         227	1	76	3	0.0	94.94001	128.73	99.84999
         228	1	76	4	0.0	92.2	129.25	98.28
         229	1	77	1	0.0	95.43	126.23	99.25
         230	1	77	3	0.0	96.03001	127.31	97.14
         231	1	77	4	0.0	95.04	124.79001	98.94001
         232	1	78	1	0.0	98.76999	126.98	97.47
         233	1	78	3	0.0	98.76999	126.81	95.13
         234	1	78	4	0.0	100.25	127.01001	98.03
         235	1	79	1	0.0	98.23	124.02	95.11
         236	1	79	3	0.0	97.08	124.47001	93.07
         237	1	79	4	0.0	98.130005	122.59	95.58001
         238	1	80	1	0.0	94.69001	125.45	94.29
         239	1	80	3	0.0	94.61	127.03	92.44
         240	1	80	4	0.0	93.51	125.72	95.22
         241	1	81	1	0.0	96.28	128.8	93.49999
         242	1	81	3	0.0	96.98999	129.13	91.29
         243	1	81	4	0.0	97.07	129.78	94.43
         244	1	82	1	0.0	99.22	127.340004	91.47
         245	1	82	3	0.0	98.82001	127.23	89.05999
         246	1	82	4	0.0	100.3	126.37001	92.09999
         247	1	83	1	0.0	96.8	125.17999	89.29
         248	1	83	3	0.0	95.86	126.31	87.37
         249	1	83	4	0.0	95.91	123.96	89.74999
         250	1	84	1	0.0	94.36	128.24	88.84
         251	1	84	3	0.0	94.88	129.65	86.94001
         252	1	84	4	0.0	93.48001	128.98	89.97
         253	1	85	1	0.0	97.16001	130.63	88.07
         254	1	85	3	0.0	97.84	131.17	85.89
         255	1	85	4	0.0	98.34	131.18	89.05999
         256	1	86	1	0.0	98.86	128.69	85.21
         257	1	86	3	0.0	98.130005	129.15	82.98
         258	1	86	4	0.0	99.54	127.3	85.36
         259	1	87	1	0.0	95.52	128.42	83.32
         260	1	87	3	0.0	94.6	130.04	81.87
         261	1	87	4	0.0	94.25001	127.52999	83.83
         262	1	88	1	0.0	94.93	132.13	83.88
         263	1	88	3	0.0	95.75	133.64	82.16
         264	1	88	4	0.0	94.68	132.66	85.33
         265	1	89	1	0.0	98.42	133.43	82.93
         266	1	89	3	0.0	99.23	133.45	80.68
         267	1	89	4	0.0	99.67	133.34	83.79
         268	1	90	1	0.0	98.12001	131.05	79.88
         269	1	90	3	0.0	97.42	132.18	77.87
         270	1	90	4	0.0	97.76	129.52	79.81
         271	1	91	1	0.0	94.82001	132.72	78.79
         272	1	91	3	0.0	95.1	134.59	77.25
         273	1	91	4	0.0	93.49999	132.65	79.69
         274	1	92	1	0.0	96.48	136.2	79.16
         275	1	92	3	0.0	97.68001	137.07	77.27
         276	1	92	4	0.0	97.17	136.57	80.47
         277	1	93	1	0.0	99.590004	135.0	77.31
         278	1	93	3	0.0	99.69	135.26	75.01
         279	1	93	4	0.0	100.49	133.81	77.61
         280	1	94	1	0.0	97.490005	133.62	74.45
         281	1	94	3	0.0	97.08	135.22	72.72
         282	1	94	4	0.0	96.49	132.49	74.46
         283	1	95	1	0.0	95.62	136.96	74.29
         284	1	95	3	0.0	96.670006	138.37	72.65
         285	1	95	4	0.0	94.81	137.61	75.52
         286	1	96	1	0.0	98.89001	139.12	74.36
         287	1	96	3	0.0	99.77	139.33	72.15
         288	1	96	4	0.0	99.8	139.24	75.55
         289	1	97	1	0.0	100.600006	136.68	71.87
         290	1	97	3	0.0	100.44	137.21	69.51
         291	1	97	4	0.0	100.95	135.19	72.16
         292	1	98	1	0.0	97.73	136.63	69.2
         293	1	98	3	0.0	97.39	138.31	67.6
         294	1	98	4	0.0	96.36	135.91	69.43
         295	1	99	1	0.0	97.25	140.28	69.51
         296	1	99	3	0.0	98.56	141.74	68.11
         297	1	99	4	0.0	96.82	141.0	70.79
         298	1	100	1	0.0	100.84	141.31	69.33
         299	1	100	3	0.0	101.64	141.49	67.1
         300	1	100	4	0.0	101.89	141.09	70.35
         301	1	101	1	0.0	101.28	138.81	66.42
         302	1	101	3	0.0	101.2	139.56	64.15
         303	1	101	4	0.0	101.05999	137.28	66.54
         304	1	102	1	0.0	98.439995	140.16	64.25
         305	1	102	3	0.0	98.92	142.07	62.780003
         306	1	102	4	0.0	96.920006	140.2	64.54
         307	1	103	1	0.0	99.8	143.75	64.68
         308	1	103	3	0.0	101.39	144.62	62.98
         309	1	103	4	0.0	99.96999	144.45	66.01
         310	1	104	1	0.0	103.27999	142.62	63.56
         311	1	104	3	0.0	103.82	142.55	61.259995
         312	1	104	4	0.0	104.24	141.67	64.3
         313	1	105	1	0.0	102.130005	140.32	60.649998
         314	1	105	3	0.0	102.3	141.36	58.489998
         315	1	105	4	0.0	101.2	139.06	60.749996
         316	1	106	1	0.0	100.409996	143.36	59.11
         317	1	106	3	0.0	101.65	145.03	57.93
         318	1	106	4	0.0	99.020004	143.94	59.6
         319	1	107	1	0.0	103.37	145.69	60.04
         320	1	107	3	0.0	104.96	145.93	58.24
         321	1	107	4	0.0	103.83001	146.13	61.479996
         322	1	108	1	0.0	106.14	143.46	58.780003
         323	1	108	3	0.0	107.08999	143.18	56.680004
         324	1	108	4	0.0	106.85	142.32	59.39
         325	1	109	1	0.0	104.5	142.99	55.44
         326	1	109	3	0.0	105.79	143.7	53.44
         327	1	109	4	0.0	103.01001	143.14	55.17
         328	1	110	1	0.0	105.67	146.42	53.84
         329	1	110	3	0.0	106.58	148.71	54.03
         330	1	110	4	0.0	104.71	146.65	52.66
         331	1	111	1	0.0	105.97	148.94	56.67
         332	1	111	3	0.0	107.68	149.64	58.28
         333	1	111	4	0.0	104.78	149.39	57.630005
         334	1	112	1	0.0	109.240005	147.32	57.94
         335	1	112	3	0.0	110.69001	149.16	57.82
         336	1	112	4	0.0	109.42999	145.84	58.34
         337	1	113	1	0.0	111.329994	146.32	55.639996
         338	1	113	3	0.0	109.21	146.51	54.5
         339	1	113	4	0.0	112.729996	146.33	55.01
         340	1	114	1	0.0	109.34	144.05	53.43
         341	1	114	3	0.0	110.25001	141.91	53.83
         342	1	114	4	0.0	109.66	144.53	51.93
         343	1	115	1	0.0	107.91	140.48	53.4
         344	1	115	3	0.0	106.450005	140.77	51.44
         345	1	115	4	0.0	107.01001	139.97	54.520004
         346	1	116	1	0.0	107.55	138.61	50.049995
         347	1	116	3	0.0	108.53	136.45	50.34
         348	1	116	4	0.0	108.55	139.19	49.01
         349	1	117	1	0.0	106.28	135.16	49.69
         350	1	117	3	0.0	104.55	135.76	48.109997
         351	1	117	4	0.0	105.77	134.68	51.02
         352	1	118	1	0.0	104.69	132.99	47.01
         353	1	118	3	0.0	103.13	131.42	47.55
         354	1	118	4	0.0	105.59	131.84	46.38
         355	1	119	1	0.0	100.96	133.01	46.66
         356	1	119	3	0.0	100.73999	132.44	48.939995
         357	1	119	4	0.0	100.62	131.84	45.69
         358	1	120	1	0.0	97.86	132.77	48.93
         359	1	120	3	0.0	98.29	130.42	48.749996
         360	1	120	4	0.0	96.4	133.18	48.5
         361	1	121	1	0.0	97.619995	129.72	51.33
         362	1	121	3	0.0	97.76	130.46	53.6
         363	1	121	4	0.0	99.020004	129.03	51.17
         364	1	122	1	0.0	95.41	128.84	54.4
         365	1	122	3	0.0	96.52	128.51	56.580006
         366	1	122	4	0.0	94.19999	127.8	54.300003
         367	1	123	1	0.0	97.97	126.29	55.6
         368	1	123	3	0.0	99.16	126.71	57.55
         369	1	123	4	0.0	98.6	125.25	54.649998
         370	1	124	1	0.0	100.85	128.68	56.369995
         371	1	124	3	0.0	101.09	129.85	58.360004
         372	1	124	4	0.0	101.79	129.38	55.27
         373	1	125	1	0.0	98.63999	131.22	58.15
         374	1	125	3	0.0	98.48	130.9	60.5
         375	1	125	4	0.0	97.57	132.11	57.46
         376	1	126	1	0.0	97.10999	128.42	60.19
         377	1	126	3	0.0	98.15	127.81	62.23
         378	1	126	4	0.0	96.19	127.35	59.68
         379	1	127	1	0.0	100.5	127.0	61.04
         380	1	127	3	0.0	101.66	127.81	63.07
         381	1	127	4	0.0	101.44	126.46	60.04
         382	1	128	1	0.0	101.73	130.46	62.28
         383	1	128	3	0.0	101.59	130.92	64.65
         384	1	128	4	0.0	101.61001	131.84	61.479996
         385	1	129	1	0.0	98.85	130.51	64.83
         386	1	129	3	0.0	99.22	129.43	66.91
         387	1	129	4	0.0	97.32	130.53	64.51
         388	1	130	1	0.0	99.68	126.83999	66.03
         389	1	130	3	0.0	101.32	126.79	67.82
         390	1	130	4	0.0	99.91	125.61001	65.24
         391	1	131	1	0.0	103.37	128.06	66.47
         392	1	131	3	0.0	104.07	128.9	68.62
         393	1	131	4	0.0	104.21	128.52	65.26
         394	1	132	1	0.0	102.33	131.24	68.42
         395	1	132	3	0.0	102.21	130.92	70.74
         396	1	132	4	0.0	101.58	132.37	67.78
         397	1	133	1	0.0	100.09999	128.93	70.53
         398	1	133	3	0.0	101.26	128.19	72.54
         399	1	133	4	0.0	98.97	127.96999	70.02
         400	1	134	1	0.0	103.05	126.41	71.11
         401	1	134	3	0.0	104.55	126.75	73.03
         402	1	134	4	0.0	103.83001	125.79	69.95
         403	1	135	1	0.0	105.22	129.37	72.28
         404	1	135	3	0.0	105.07	129.83	74.67
         405	1	135	4	0.0	105.68001	130.66	71.58
         406	1	136	1	0.0	102.41	130.63	74.66
         407	1	136	3	0.0	102.36	129.91	76.95
         408	1	136	4	0.0	100.920006	130.95	74.12
         409	1	137	1	0.0	102.189995	127.26001	76.29
         410	1	137	3	0.0	103.51	126.94001	78.29
         411	1	137	4	0.0	101.80001	126.01	75.56
         412	1	138	1	0.0	105.93001	127.06	77.1
         413	1	138	3	0.0	106.99	128.21	78.88
         414	1	138	5	0.0	104.670006	118.04716691	72.40544486
         415	1	139	1	0.0	106.53	130.77	78.03
         416	1	139	3	0.0	106.189995	131.89	80.15
         417	1	139	4	0.0	106.63999	131.84	76.95
         418	1	140	1	0.0	103.83001	130.7	80.63
         419	1	140	3	0.0	104.02	130.08	82.9
         420	1	140	4	0.0	102.31	130.63	80.39
         421	1	141	1	0.0	105.47	127.649994	82.38
         422	1	141	3	0.0	106.3	127.58001	84.54
         423	1	141	4	0.0	106.04	126.37001	81.64
         424	1	142	1	0.0	108.16999	129.61	84.41
         425	1	142	3	0.0	108.04	130.51	86.6
         426	1	142	4	0.0	109.16001	130.5	83.68
         427	1	143	1	0.0	105.619995	131.97	85.99
         428	1	143	3	0.0	105.15	131.89	88.34
         429	1	143	4	0.0	104.56	132.84	85.23
         430	1	144	1	0.0	104.21	129.44	88.600006
         431	1	144	3	0.0	105.42	128.61	90.450005
         432	1	144	4	0.0	103.25	128.28	88.2
         433	1	145	1	0.0	107.64	128.01	89.12
         434	1	145	3	0.0	108.97	128.39	91.07
         435	1	145	4	0.0	108.57	127.399994	88.07
         436	1	146	1	0.0	108.600006	131.19	91.05
         437	1	146	3	0.0	108.75	131.02	93.41
         438	1	146	4	0.0	108.21999	132.63	90.58
         439	1	147	1	0.0	105.96	130.29	93.66
         440	1	147	3	0.0	106.36	128.79	95.45
         441	1	147	5	0.0	106.72	122.51395619	88.48430229
         442	1	148	1	0.0	107.08999	126.65	93.74
         443	1	148	3	0.0	108.89	126.130005	95.340004
         444	1	148	4	0.0	107.06	125.73	92.57
         445	1	149	1	0.0	110.83999	127.8	94.21
         446	1	149	3	0.0	111.63	128.0	96.350006
         447	1	149	4	0.0	111.78001	128.54	93.17
         448	1	150	1	0.0	110.41	130.48	96.89
         449	1	150	3	0.0	108.16	131.37	97.240005
         450	1	150	4	0.0	110.88	131.96	96.45
         451	1	151	1	0.0	108.08	130.12	99.84
         452	1	151	3	0.0	106.56	131.75	100.729996
         453	1	151	4	0.0	108.51	129.44	101.17999
         454	1	152	1	0.0	108.07	133.98	100.37
         455	1	152	3	0.0	107.079994	136.0	99.47
         456	1	152	4	0.0	109.35	134.71	100.82
         457	1	153	1	0.0	106.71	135.0	96.93
         458	1	153	3	0.0	104.38	135.21	97.28
         459	1	153	4	0.0	107.62	134.85	95.69
         460	1	154	1	0.0	103.6	134.01	94.83999
         461	1	154	3	0.0	101.42	134.03	95.84999
         462	1	154	4	0.0	103.649994	133.35	93.44
         463	1	155	1	0.0	101.51	131.58	96.9
         464	1	155	3	0.0	100.8	131.05	99.14001
         465	1	155	4	0.0	101.619995	130.09	96.43
         466	1	156	1	0.0	102.95999	132.38	100.51
         467	1	156	3	0.0	102.15	131.15	102.34
         468	1	156	4	0.0	103.73	133.66	100.79001
         469	1	157	1	0.0	99.76	132.65	102.71
         470	1	157	3	0.0	97.57	131.66	102.79
         471	1	157	4	0.0	99.56	134.03	103.42
         472	1	158	1	0.0	97.39	131.34	100.04
         473	1	158	3	0.0	95.52	132.06	98.68
         474	1	158	5	0.0	98.48	121.77742151	93.50627952
         475	1	159	1	0.0	96.51	134.56	98.12001
         476	1	159	3	0.0	98.02	133.75	96.48
         477	1	159	4	0.0	97.01	135.96	98.439995
         478	1	160	1	0.0	95.95	133.38	94.50001
         479	1	160	3	0.0	95.98	134.56	92.350006
         480	1	160	4	0.0	94.85	132.42	94.06
         481	1	161	1	0.0	95.57	137.1	93.39
         482	1	161	3	0.0	96.23	137.96	91.26001
         483	1	161	4	0.0	95.17	138.37	94.26
         484	1	162	1	0.0	98.9	137.7	91.6
         485	1	162	3	0.0	100.44	139.42	91.84999
         486	1	162	4	0.0	99.399994	136.48	90.76999
         487	1	163	1	0.0	101.86	137.83	93.89
         488	1	163	3	0.0	101.0	139.85	94.95
         489	1	163	4	0.0	103.07	137.4	93.13
         490	1	164	1	0.0	103.44	141.1	95.13
         491	1	164	3	0.0	104.14	141.66	92.83
         492	1	164	4	0.0	104.69	141.04	96.0
         493	1	165	1	0.0	103.74	144.41	93.17
         494	1	165	3	0.0	104.53	144.2	90.87
         495	1	165	4	0.0	103.96	145.81	93.89
         496	1	166	1	0.0	107.270004	143.97	91.74
         497	1	166	3	0.0	107.89	143.03	89.65
         498	1	166	4	0.0	108.32	143.33	92.68
         499	1	167	1	0.0	106.09	140.8	89.82
         500	1	167	3	0.0	105.64	141.19	87.45
         501	1	167	4	0.0	105.34	139.65	90.51999
         502	1	168	1	0.0	103.26001	142.53	87.95
         503	1	168	3	0.0	103.27999	144.28	86.3
         504	1	168	4	0.0	101.83	142.42	88.46
         505	1	169	1	0.0	105.07	145.89	87.49
         506	1	169	3	0.0	105.91	146.38	85.28
         507	1	169	4	0.0	105.80001	146.83	88.57
         508	1	170	1	0.0	107.6	144.14	85.18
         509	1	170	3	0.0	106.66	144.02	82.91
         510	1	170	4	0.0	108.44	142.94	85.59
         511	1	171	1	0.0	104.38	142.51	83.91
         512	1	171	3	0.0	103.2	143.29	82.0
         513	1	171	5	0.0	105.619995	132.43009529	78.46572786
         514	1	172	1	0.0	102.87	146.01	83.02
         515	1	172	3	0.0	102.58	146.67	80.66
         516	1	172	4	0.0	102.759995	147.29	83.92
         517	1	173	1	0.0	105.32	146.39	80.12
         518	1	173	3	0.0	104.600006	145.64	77.89
         519	1	173	4	0.0	106.86	146.46	80.19
         520	1	174	1	0.0	104.53	142.85	78.54
         521	1	174	3	0.0	102.63	141.65	77.69
         522	1	174	4	0.0	105.53	141.6	78.89
         523	1	175	1	0.0	100.7	142.76	79.4
         524	1	175	3	0.0	98.65	143.9	79.11
         525	1	175	4	0.0	100.09999	142.12	80.72
         526	1	176	1	0.0	99.77	146.47	78.91
         527	1	176	3	0.0	99.90001	147.73	76.85
         528	1	176	4	0.0	99.46001	147.14	80.3
         529	1	177	1	0.0	102.25001	149.01	77.56
         530	1	177	3	0.0	102.14	149.29	75.16
         531	1	177	4	0.0	103.48	149.71	78.3
         532	1	178	1	0.0	103.45	146.97	74.5
         533	1	178	3	0.0	101.9	146.88	72.77
         534	1	178	4	0.0	104.58	145.91	74.51
         535	1	179	1	0.0	100.09	145.16	73.69
         536	1	179	3	0.0	98.65	146.54	72.31
         537	1	179	4	0.0	99.52999	143.97	74.5
         538	1	180	1	0.0	97.15	147.51	74.53
         539	1	180	3	0.0	96.64	149.79	74.48
         540	1	180	4	0.0	96.3	147.32	75.82
         541	1	181	1	0.0	99.079994	150.62	73.73
         542	1	181	3	0.0	99.46001	151.06	71.42
         543	1	181	4	0.0	99.64	151.48	74.86
         544	1	182	1	0.0	102.06	150.48	71.34
         545	1	182	3	0.0	101.490005	150.15	69.06
         546	1	182	4	0.0	103.6	150.22	71.51
         547	1	183	1	0.0	100.68	147.55	69.28
         548	1	183	3	0.0	99.20999	147.98	67.36
         549	1	183	4	0.0	100.65	146.07	69.54
         550	1	184	1	0.0	97.10999	149.09	68.9
         551	1	184	3	0.0	96.83	150.57	67.06
         552	1	184	4	0.0	96.16999	149.41	69.97
         553	1	185	1	0.0	98.82001	152.41	67.63
         554	1	185	3	0.0	99.35	152.3	65.33
         555	1	185	4	0.0	99.73	153.3	68.42
         556	1	186	1	0.0	101.32	150.3	65.51
         557	1	186	3	0.0	100.65	150.01	63.2
         558	1	186	4	0.0	102.16	149.09	66.01
         559	1	187	1	0.0	98.22	148.62	63.88
         560	1	187	3	0.0	97.47	149.9	61.87
         561	1	187	4	0.0	97.22	147.83	64.77
         562	1	188	1	0.0	96.48	152.13	63.259995
         563	1	188	3	0.0	96.73999	153.45	61.34
         564	1	188	4	0.0	95.93	153.0	64.45
         565	1	189	1	0.0	99.45	153.71	61.790005
         566	1	189	3	0.0	99.76	153.46	59.44
         567	1	189	4	0.0	100.87	154.1	62.42
         568	1	190	1	0.0	99.66	150.79	59.28
         569	1	190	3	0.0	98.54	151.07	57.060005
         570	1	190	4	0.0	99.69	149.25	59.58
         571	1	191	1	0.0	96.09	151.59	58.360004
         572	1	191	3	0.0	95.5	153.25	56.82
         573	1	191	4	0.0	94.92	151.06	59.36
         574	1	192	1	0.0	97.01	155.28	58.0
         575	1	192	3	0.0	98.15	156.29	56.28
         576	1	192	4	0.0	97.09	156.35	59.12
         577	1	193	1	0.0	100.13	154.49	55.84
         578	1	193	3	0.0	99.08999	153.26	53.93
         579	1	193	4	0.0	101.27	153.45	56.1
         580	1	194	1	0.0	99.73	155.04	51.9
         581	1	194	3	0.0	101.09	154.45	49.92
         582	1	194	4	0.0	99.39	156.39	51.190002
         583	1	195	1	0.0	103.36	153.61	51.33
         584	1	195	3	0.0	103.19	151.16	51.68
         585	1	195	4	0.0	104.33	153.8	52.6
         586	1	196	1	0.0	103.55	150.43	49.11
         587	1	196	3	0.0	104.26	149.36	47.12
         588	1	196	4	0.0	102.22	149.77	48.93
         589	1	197	1	0.0	105.67	151.57	46.16
         590	1	197	3	0.0	107.17	150.14	44.939995
         591	1	197	4	0.0	106.36	152.99	45.93
         592	1	198	1	0.0	108.44	149.09	47.410004
         593	1	198	3	0.0	106.92	147.21	47.36
         594	1	198	4	0.0	108.73999	149.06	48.91
         595	1	199	1	0.0	108.62	145.68	45.78
         596	1	199	3	0.0	110.82001	145.56	44.97
         597	1	199	4	0.0	107.61	145.65	44.620003
         598	1	200	1	0.0	111.079994	142.86	45.09
         599	1	200	3	0.0	111.649994	141.1	43.53
         600	1	200	4	0.0	111.47	141.98	46.31
         601	1	201	1	0.0	109.03	141.25	42.28
         602	1	201	3	0.0	110.3	142.69	40.77
         603	1	201	4	0.0	107.57	141.78	42.05
         604	1	202	1	0.0	111.329994	140.34	39.32
         605	1	202	3	0.0	110.55	141.9	37.68
         606	1	202	4	0.0	111.35	138.98	38.67
         607	1	203	1	0.0	113.15	142.89	37.09
         608	1	203	3	0.0	114.79	144.0	38.56
         609	1	203	4	0.0	112.08	144.08	36.81
         610	1	204	1	0.0	116.920006	143.63	36.73
         611	1	204	3	0.0	118.41	145.19	35.88
         612	1	204	4	0.0	117.77	142.39	36.14
         613	1	205	1	0.0	116.409996	146.75	34.73
         614	1	205	3	0.0	114.450005	147.95	35.56
         615	1	205	4	0.0	115.94	146.42	33.32
         616	1	206	1	0.0	116.15001	150.07	36.57
         617	1	206	3	0.0	115.98	148.39	38.26
         618	1	206	5	0.0	116.48	141.75838159	34.33094577
         619	1	207	1	0.0	114.76999	150.29	40.13
         620	1	207	3	0.0	112.57	150.18	39.25
         621	1	207	4	0.0	114.76999	151.49	41.11
         622	1	208	1	0.0	111.74	147.83	40.74
         623	1	208	3	0.0	109.42999	148.41	40.51
         624	1	208	4	0.0	111.89	146.67	41.73
         625	1	209	1	0.0	109.549995	150.38	42.65
         626	1	209	3	0.0	108.93	151.44	40.51
         627	1	209	4	0.0	110.29	151.39	43.61
         628	1	210	1	0.0	106.38999	151.84	41.28
         629	1	210	3	0.0	107.07	154.01	42.09
         630	1	210	4	0.0	104.97	151.78	41.96
         631	1	211	1	0.0	106.95	155.21	39.47
         632	1	211	3	0.0	105.91	157.17	40.44
         633	1	211	4	0.0	106.92	155.44	37.95
         634	1	212	1	0.0	103.27999	156.07	40.38
         635	1	212	3	0.0	102.759995	154.13	41.43
         636	1	212	4	0.0	102.23	156.0	39.19
         637	1	213	1	0.0	102.03	155.26	43.890003
         638	1	213	3	0.0	99.96	154.03	43.950005
         639	1	213	4	0.0	102.46	156.08	45.11
         640	1	214	1	0.0	98.35	156.32	43.98
         641	1	214	3	0.0	96.56	154.96	43.259995
         642	1	214	4	0.0	97.94999	157.79	44.01
         643	1	215	1	0.0	97.39	154.74	40.58
         644	1	215	3	0.0	99.37	154.73	39.22
         645	1	215	4	0.0	96.25	155.7	40.16
         646	1	216	1	0.0	98.62	152.53	37.7
         647	1	216	3	0.0	97.74999	153.8	35.73
         648	1	216	4	0.0	98.09	151.07	37.26
         649	1	217	1	0.0	100.15001	154.21	34.53
         650	1	217	3	0.0	102.08	152.88	34.0
         651	1	217	4	0.0	100.81	155.58	34.48
         652	1	218	1	0.0	99.18	152.81	32.04
         653	1	218	3	0.0	99.96999	155.01	31.25
         654	1	218	4	0.0	98.95	151.57	31.2