ITEM: TIMESTEP
0
ITEM: NUMBER OF ATOMS
8634
ITEM: BOX BOUNDS ss ss ss
33.95 161.96
10.94 162.23
-4.43 129.65
ITEM: ATOMS id type xs ys zs
1 1 0.41778 0.882676 0.846062
2 3 0.401141 0.888823 0.851507
3 4 0.415046 0.873686 0.840692
4 1 0.400594 0.902637 0.838828
5 3 0.401687 0.902109 0.820853
6 4 0.403953 0.912222 0.841662
7 1 0.38083 0.907 0.817572
8 3 0.376846 0.896953 0.80355
9 4 0.387235 0.913279 0.810635
10 1 0.369815 0.882676 0.815856
11 3 0.361769 0.877256 0.801387
12 4 0.365987 0.877454 0.825552
13 1 0.344348 0.888955 0.801909
14 3 0.344895 0.887435 0.783338
15 4 0.337083 0.896094 0.806011
16 1 0.360909 0.90039 0.781847
17 3 0.367003 0.890938 0.768496
18 4 0.367315 0.909115 0.78304
19 1 0.380361 0.880098 0.780952
20 3 0.374971 0.868927 0.769168
21 4 0.386767 0.876462 0.7902
22 1 0.357003 0.864036 0.778789
23 3 0.348879 0.860533 0.762754
24 4 0.349426 0.862384 0.787515
25 1 0.343489 0.877256 0.75895
26 3 0.34716 0.873488 0.742616
27 4 0.339348 0.886774 0.760143
28 1 0.368409 0.877983 0.743138
29 3 0.370127 0.866217 0.731354
30 4 0.379111 0.882345 0.746122
31 1 0.372002 0.852733 0.744779
32 3 0.362628 0.842818 0.733816
33 4 0.374502 0.848899 0.755146
34 1 0.343489 0.848172 0.739558
35 3 0.341458 0.846388 0.721211
36 4 0.333958 0.851015 0.746122
37 1 0.345207 0.864565 0.717258
38 3 0.349973 0.856963 0.702416
39 4 0.34802 0.874678 0.719048
40 1 0.370909 0.852733 0.708607
41 3 0.369581 0.840703 0.696674
42 4 0.381376 0.852403 0.714275
43 1 0.356847 0.830128 0.707712
44 3 0.348723 0.826294 0.691826
45 4 0.353488 0.824774 0.717035
46 1 0.334349 0.839051 0.692497
47 3 0.337239 0.839315 0.675119
48 4 0.3256 0.845462 0.695629
49 1 0.354972 0.851147 0.676462
50 3 0.357316 0.842885 0.661844
51 4 0.362784 0.858021 0.680191
52 1 0.366221 0.828277 0.670271
53 3 0.357394 0.820676 0.656772
54 4 0.374424 0.822592 0.675492
55 1 0.339114 0.817965 0.666244
56 3 0.333333 0.819089 0.648493
57 4 0.329818 0.816644 0.673628
58 1 0.332083 0.837002 0.648195
59 3 0.337786 0.835614 0.631862
60 4 0.33013 0.84685 0.65185
61 1 0.359269 0.834622 0.636337
62 3 0.361925 0.82484 0.622688
63 4 0.369893 0.837266 0.640066
64 1 0.355597 0.809241 0.633055
65 3 0.346067 0.806134 0.618362
66 4 0.35505 0.801838 0.641035
67 1 0.328412 0.815057 0.623061
68 3 0.325912 0.817635 0.605832
69 4 0.319194 0.819882 0.628132
70 1 0.341614 0.830656 0.604042
71 3 0.348567 0.825302 0.588828
72 5 0.338333 0.781097 0.562593
73 1 0.361222 0.811818 0.597479
74 3 0.356144 0.804614 0.582488
75 4 0.368096 0.807059 0.60531
76 1 0.338411 0.796946 0.591214
77 3 0.33099 0.798665 0.574508
78 4 0.330912 0.79298 0.599195
79 1 0.325365 0.816049 0.576521
80 3 0.33013 0.817305 0.558696
81 4 0.322865 0.825038 0.58219
82 1 0.350988 0.818032 0.562053
83 3 0.352551 0.809042 0.547434
84 4 0.361847 0.82094 0.566677
85 1 0.354035 0.793377 0.5581
86 3 0.34552 0.786701 0.543556
87 4 0.355753 0.786503 0.566378
88 1 0.325443 0.790138 0.549746
89 3 0.317475 0.79298 0.533264
90 4 0.3156 0.790535 0.557354
91 1 0.325521 0.810166 0.532816
92 3 0.335911 0.817503 0.520659
93 4 0.322162 0.819221 0.537366
94 1 0.352785 0.804812 0.521405
95 3 0.346848 0.802829 0.504102
96 4 0.359738 0.796351 0.523344
97 1 0.361066 0.814462 0.496271
98 3 0.367159 0.800449 0.490081
99 4 0.369815 0.821337 0.494928
100 1 0.3588 0.803093 0.470913
101 3 0.369893 0.800185 0.456742
102 4 0.348879 0.804481 0.463828
103 1 0.384267 0.813603 0.462038
104 3 0.394969 0.800978 0.464275
105 4 0.389813 0.821601 0.46793
106 1 0.401375 0.800119 0.444362
107 3 0.416296 0.792055 0.450552
108 4 0.40075 0.800582 0.432876
109 1 0.426139 0.806134 0.459278
110 3 0.431685 0.797739 0.472405
111 4 0.430669 0.815322 0.460173
112 1 0.413093 0.797673 0.482846
113 3 0.414499 0.78214 0.485904
114 4 0.404734 0.802895 0.488962
115 1 0.404343 0.776654 0.468303
116 3 0.417233 0.765087 0.470615
117 4 0.398172 0.776125 0.458085
118 1 0.433482 0.774605 0.462634
119 3 0.448793 0.771168 0.472405
120 4 0.439184 0.78062 0.454729
121 1 0.438716 0.778042 0.490826
122 3 0.454105 0.783594 0.499105
123 4 0.439809 0.767995 0.495078
124 1 0.459261 0.796616 0.485979
125 3 0.461526 0.812083 0.48844
126 4 0.465354 0.797145 0.476432
127 1 0.442153 0.81585 0.494779
128 3 0.426295 0.815586 0.504027
129 4 0.435903 0.819684 0.485904
130 1 0.433013 0.801838 0.516856
131 3 0.431841 0.801309 0.535277
132 4 0.436372 0.791989 0.514842
133 1 0.444497 0.81552 0.538932
134 3 0.435982 0.814661 0.554594
135 4 0.453011 0.822857 0.536844
136 1 0.420123 0.826029 0.551238
137 3 0.408406 0.818098 0.561978
138 4 0.415436 0.834424 0.547658
139 1 0.404734 0.80468 0.54818
140 3 0.404734 0.79417 0.56168
141 4 0.401531 0.799987 0.53841
142 1 0.42731 0.792782 0.560039
143 3 0.425982 0.791923 0.578162
144 4 0.438559 0.792319 0.556086
145 1 0.428248 0.809174 0.581071
146 3 0.418405 0.808117 0.595316
147 4 0.432076 0.818693 0.578535
148 1 0.397938 0.807059 0.585919
149 3 0.393719 0.795955 0.598001
150 4 0.389813 0.808712 0.577118
151 1 0.402469 0.782801 0.590245
152 3 0.407468 0.779827 0.607249
153 4 0.403562 0.774539 0.583383
154 1 0.428013 0.785643 0.605758
155 3 0.425826 0.787759 0.623434
156 4 0.437935 0.789742 0.601357
157 1 0.415671 0.804151 0.623285
158 3 0.407859 0.797806 0.637604
159 4 0.412155 0.813008 0.617989
160 1 0.39161 0.788816 0.626715
161 3 0.390516 0.777447 0.638723
162 4 0.384111 0.786503 0.61784
163 1 0.408874 0.768194 0.632757
164 3 0.41153 0.767466 0.650283
165 4 0.417389 0.763963 0.625746
166 1 0.424342 0.781942 0.651477
167 3 0.416452 0.782867 0.668109
168 4 0.431919 0.789543 0.649165
169 1 0.398875 0.79146 0.662067
170 3 0.390438 0.784388 0.675492
171 5 0.407937 0.742729 0.624717
172 1 0.388017 0.767929 0.665946
173 3 0.38997 0.760791 0.681906
174 4 0.385907 0.761121 0.656697
175 1 0.41153 0.762112 0.682279
176 3 0.413249 0.766475 0.699284
177 4 0.422233 0.759667 0.677506
178 1 0.412233 0.784586 0.695331
179 3 0.404031 0.787362 0.711068
180 4 0.414343 0.793113 0.689663
181 1 0.384111 0.78604 0.703684
182 3 0.378564 0.785643 0.720764
183 4 0.37458 0.785577 0.696748
184 1 0.384111 0.769053 0.724866
185 3 0.390126 0.773217 0.740379
186 4 0.383564 0.759006 0.723449
187 1 0.410905 0.779034 0.73307
188 3 0.409655 0.790138 0.7456
189 4 0.421217 0.778968 0.727178
190 1 0.398953 0.802102 0.733666
191 3 0.391376 0.806266 0.749702
192 4 0.3945 0.806663 0.724418
193 1 0.374346 0.794699 0.747986
194 3 0.37583 0.793443 0.766259
195 4 0.366456 0.787825 0.743735
196 1 0.391454 0.781678 0.766483
197 3 0.398172 0.789147 0.78043
198 4 0.395672 0.772556 0.76432
199 1 0.409577 0.801243 0.769541
200 3 0.405125 0.808117 0.784905
201 4 0.414811 0.806927 0.761262
202 1 0.387626 0.816776 0.777968
203 3 0.379111 0.816644 0.793556
204 4 0.380673 0.821931 0.77051
205 1 0.373486 0.798004 0.792661
206 3 0.375752 0.798004 0.81071
207 4 0.371143 0.788221 0.788559
208 1 0.39825 0.796814 0.808472
209 3 0.399109 0.812678 0.805937
210 4 0.408952 0.792914 0.804818
211 1 0.407703 0.815454 0.823911
212 3 0.424889 0.813537 0.815632
213 5 0.403797 0.764895 0.779181
214 1 0.42981 0.83178 0.816975
215 3 0.438169 0.831119 0.83301
216 4 0.42817 0.841959 0.816602
217 1 0.454808 0.820279 0.827342
218 3 0.471135 0.812612 0.824582
219 4 0.45098 0.813669 0.835695
220 1 0.468166 0.808513 0.80452
221 3 0.472619 0.793311 0.802058
222 4 0.469495 0.812347 0.793631
223 1 0.453011 0.786635 0.803326
224 3 0.458011 0.773019 0.795868
225 4 0.44145 0.787098 0.805788
226 1 0.457777 0.778373 0.776328
227 3 0.476447 0.778571 0.777745
228 4 0.455043 0.782008 0.766035
229 1 0.480275 0.762046 0.77327
230 3 0.484962 0.769185 0.757533
231 4 0.477228 0.752528 0.770958
232 1 0.506367 0.767004 0.759994
233 3 0.506367 0.76588 0.742542
234 4 0.517928 0.767202 0.764171
235 1 0.502148 0.747439 0.742393
236 3 0.493165 0.750413 0.727178
237 4 0.501367 0.737987 0.745898
238 1 0.474494 0.756891 0.736277
239 3 0.473869 0.767334 0.722479
240 4 0.465276 0.758675 0.743213
241 1 0.486915 0.779034 0.730385
242 3 0.492461 0.781215 0.713902
243 4 0.493086 0.785511 0.737321
244 1 0.509882 0.769383 0.715245
245 3 0.506757 0.768656 0.69727
246 4 0.518319 0.762972 0.719943
247 1 0.490977 0.755106 0.698986
248 3 0.483634 0.762575 0.684666
249 4 0.484025 0.747042 0.702416
250 1 0.471916 0.775332 0.695629
251 3 0.475978 0.784652 0.681459
252 4 0.465042 0.780223 0.704057
253 1 0.49379 0.79113 0.689887
254 3 0.499102 0.794699 0.673628
255 4 0.503008 0.794765 0.69727
256 1 0.50707 0.778307 0.668556
257 3 0.501367 0.781347 0.651924
258 4 0.512382 0.769119 0.669675
259 1 0.480978 0.776522 0.65446
260 3 0.473791 0.78723 0.643646
261 4 0.471057 0.770639 0.658264
262 1 0.476369 0.801044 0.658637
263 3 0.482775 0.811025 0.645808
264 4 0.474416 0.804548 0.669451
265 1 0.503633 0.809637 0.651551
266 3 0.50996 0.809769 0.63477
267 4 0.513397 0.809042 0.657965
268 1 0.501289 0.793906 0.628804
269 3 0.495821 0.801375 0.613813
270 4 0.498477 0.783793 0.628282
271 1 0.47551 0.804944 0.620674
272 3 0.477697 0.817305 0.609189
273 4 0.465198 0.804481 0.627387
274 1 0.488477 0.827946 0.623434
275 3 0.497852 0.833697 0.609338
276 4 0.493868 0.830392 0.633204
277 1 0.512772 0.820015 0.609636
278 3 0.513554 0.821733 0.592482
279 4 0.519803 0.812149 0.611874
280 1 0.496368 0.810893 0.588305
281 3 0.493165 0.821469 0.575403
282 4 0.488556 0.803424 0.58838
283 1 0.481759 0.83297 0.587112
284 3 0.489962 0.84229 0.574881
285 4 0.475432 0.837266 0.596286
286 1 0.507304 0.847247 0.587634
287 3 0.514179 0.848635 0.571152
288 4 0.514413 0.84804 0.59651
289 1 0.520662 0.831119 0.569063
290 3 0.519413 0.834622 0.551462
291 4 0.523397 0.82127 0.571226
292 1 0.498242 0.830789 0.54915
293 3 0.495586 0.841893 0.537217
294 4 0.48754 0.826029 0.550865
295 1 0.494493 0.854914 0.551462
296 3 0.504726 0.864565 0.54102
297 4 0.491134 0.859673 0.561008
298 1 0.522537 0.861723 0.550119
299 3 0.528787 0.862912 0.533487
300 4 0.53074 0.860268 0.557727
301 1 0.525975 0.845198 0.528416
302 3 0.52535 0.850155 0.511486
303 4 0.524256 0.835085 0.529311
304 1 0.503789 0.854121 0.512232
305 3 0.507538 0.866746 0.501268
306 4 0.491915 0.854386 0.514394
307 1 0.514413 0.87785 0.515439
308 3 0.526834 0.883601 0.50276
309 4 0.515741 0.882477 0.525358
310 1 0.541598 0.870381 0.507085
311 3 0.545817 0.869919 0.489931
312 4 0.549098 0.864102 0.512604
313 1 0.532615 0.855179 0.485382
314 3 0.533943 0.862053 0.469272
315 4 0.52535 0.84685 0.486128
316 1 0.519178 0.875273 0.473896
317 3 0.528865 0.886311 0.465095
318 4 0.50832 0.879106 0.477551
319 1 0.542301 0.890674 0.480832
320 3 0.554722 0.89226 0.467408
321 4 0.545895 0.893582 0.491572
322 1 0.56394 0.875934 0.471435
323 3 0.571362 0.874083 0.455773
324 4 0.569487 0.868398 0.475984
325 1 0.551129 0.872827 0.446524
326 3 0.561206 0.87752 0.431608
327 4 0.539489 0.873818 0.444511
328 1 0.560269 0.895499 0.434591
329 3 0.567378 0.910635 0.436008
330 4 0.552769 0.897019 0.425791
331 1 0.562612 0.912155 0.455698
332 3 0.575971 0.916782 0.467706
333 4 0.553316 0.91513 0.462858
334 1 0.588157 0.901448 0.46517
335 3 0.599484 0.91361 0.464275
336 4 0.589641 0.891665 0.468153
337 1 0.604484 0.894838 0.448016
338 3 0.587923 0.896094 0.439514
339 4 0.615421 0.894904 0.443317
340 1 0.588938 0.879833 0.431533
341 3 0.596047 0.865688 0.434517
342 4 0.591438 0.883006 0.420346
343 1 0.577767 0.856236 0.43131
344 3 0.566362 0.858153 0.416692
345 4 0.570737 0.852865 0.439663
346 1 0.574955 0.843876 0.406325
347 3 0.582611 0.829599 0.408487
348 4 0.582767 0.84771 0.398568
349 1 0.565034 0.821072 0.40364
350 3 0.551519 0.825038 0.391856
351 4 0.56105 0.817899 0.413559
352 1 0.552613 0.806729 0.383652
353 3 0.540427 0.796351 0.387679
354 4 0.559644 0.799128 0.378953
355 1 0.523475 0.806861 0.381041
356 3 0.521756 0.803093 0.398046
357 4 0.520819 0.799128 0.373807
358 1 0.499258 0.805275 0.397971
359 3 0.502617 0.789742 0.396629
360 4 0.487853 0.807985 0.394764
361 1 0.497383 0.785115 0.415871
362 3 0.498477 0.790006 0.432801
363 4 0.50832 0.780554 0.414678
364 1 0.480119 0.779298 0.438768
365 3 0.48879 0.777117 0.455027
366 4 0.470666 0.772424 0.438022
367 1 0.500117 0.762443 0.447718
368 3 0.509413 0.765219 0.462261
369 4 0.505039 0.755569 0.440632
370 1 0.522615 0.77824 0.453461
371 3 0.52449 0.785974 0.468303
372 4 0.529959 0.782867 0.445257
373 1 0.505351 0.795029 0.466736
374 3 0.504101 0.792914 0.484263
375 4 0.496992 0.800912 0.46159
376 1 0.493399 0.776522 0.481951
377 3 0.501523 0.77249 0.497166
378 4 0.486212 0.769449 0.478147
379 1 0.519881 0.767136 0.488291
380 3 0.528943 0.77249 0.503431
381 4 0.527224 0.763567 0.480832
382 1 0.52949 0.790006 0.497539
383 3 0.528396 0.793046 0.515215
384 4 0.528553 0.799128 0.491572
385 1 0.506992 0.790336 0.516557
386 3 0.509882 0.783198 0.53207
387 4 0.495039 0.790469 0.514171
388 1 0.513476 0.766078 0.525507
389 3 0.526287 0.765748 0.538857
390 4 0.515272 0.757948 0.519615
391 1 0.542301 0.774142 0.528789
392 3 0.54777 0.779695 0.544824
393 4 0.548863 0.777183 0.519764
394 1 0.534177 0.795162 0.543332
395 3 0.53324 0.793046 0.560635
396 4 0.528318 0.802631 0.538559
397 1 0.516756 0.779893 0.559069
398 3 0.525818 0.775002 0.57406
399 4 0.507929 0.773547 0.555266
400 1 0.539802 0.763236 0.563395
401 3 0.551519 0.765484 0.577715
402 4 0.545895 0.759138 0.554743
403 1 0.556753 0.782801 0.572121
404 3 0.555582 0.785842 0.589946
405 4 0.560347 0.791328 0.5669
406 1 0.534802 0.79113 0.589872
407 3 0.534411 0.786371 0.606951
408 4 0.523162 0.793245 0.585844
409 1 0.533083 0.768855 0.602029
410 3 0.543395 0.766739 0.616945
411 4 0.530037 0.760592 0.596584
412 1 0.5623 0.767533 0.60807
413 3 0.57058 0.775134 0.621345
414 5 0.552457 0.707959 0.573057
415 1 0.566987 0.792055 0.615006
416 3 0.564331 0.799458 0.630817
417 4 0.567846 0.799128 0.606951
418 1 0.545895 0.791592 0.634397
419 3 0.547379 0.787494 0.651328
420 4 0.534021 0.79113 0.632607
421 1 0.558706 0.771432 0.647449
422 3 0.56519 0.77097 0.663559
423 4 0.563159 0.762972 0.64193
424 1 0.579798 0.784388 0.662589
425 3 0.578783 0.790336 0.678923
426 4 0.587532 0.79027 0.657145
427 1 0.559878 0.799987 0.674374
428 3 0.556207 0.799458 0.6919
429 4 0.551598 0.805737 0.668705
430 1 0.548863 0.783264 0.69384
431 3 0.558316 0.777778 0.707637
432 4 0.541364 0.775597 0.690856
433 1 0.575658 0.773812 0.697718
434 3 0.586048 0.776324 0.712261
435 4 0.582923 0.76978 0.689887
436 1 0.583158 0.794831 0.712112
437 3 0.584329 0.793707 0.729714
438 4 0.580189 0.804349 0.708607
439 1 0.562534 0.788882 0.731578
440 3 0.565659 0.778968 0.744928
441 5 0.568471 0.737484 0.692977
442 1 0.571362 0.764823 0.732175
443 3 0.585423 0.761385 0.744108
444 4 0.571127 0.758741 0.723449
445 1 0.600656 0.772424 0.73568
446 3 0.606828 0.773746 0.751641
447 4 0.607999 0.777315 0.727924
448 1 0.597297 0.790138 0.755668
449 3 0.57972 0.796021 0.758279
450 4 0.600969 0.799921 0.752387
451 1 0.579095 0.787759 0.77767
452 3 0.567221 0.798533 0.784308
453 4 0.582454 0.783264 0.787664
454 1 0.579017 0.813273 0.781623
455 3 0.571283 0.826624 0.774911
456 4 0.589016 0.818098 0.784979
457 1 0.568393 0.820015 0.755967
458 3 0.550191 0.821403 0.758577
459 4 0.575502 0.819023 0.746718
460 1 0.544098 0.813471 0.740379
461 3 0.527068 0.813603 0.747912
462 4 0.544489 0.809108 0.729937
463 1 0.527771 0.797409 0.755743
464 3 0.522225 0.793906 0.772449
465 4 0.528631 0.78756 0.752237
466 1 0.539098 0.802697 0.782667
467 3 0.532771 0.794567 0.796316
468 4 0.545114 0.811157 0.784755
469 1 0.5141 0.804481 0.799075
470 3 0.496992 0.797938 0.799672
471 4 0.512538 0.813603 0.804371
472 1 0.495586 0.795823 0.779162
473 3 0.480978 0.800582 0.769018
474 5 0.504101 0.732616 0.730432
475 1 0.488712 0.817106 0.764842
476 3 0.500508 0.811752 0.75261
477 4 0.492618 0.82636 0.767228
478 1 0.484337 0.809307 0.737843
479 3 0.484572 0.817106 0.721808
480 4 0.475744 0.802961 0.734561
481 1 0.481369 0.833895 0.729564
482 3 0.486524 0.83958 0.713678
483 4 0.478244 0.84229 0.736053
484 1 0.507382 0.837861 0.716214
485 3 0.519413 0.84923 0.718079
486 4 0.511288 0.829797 0.710024
487 1 0.530505 0.83872 0.733294
488 3 0.523787 0.852072 0.741199
489 4 0.539958 0.835878 0.727625
490 1 0.542848 0.860334 0.742542
491 3 0.548317 0.864036 0.725388
492 4 0.552613 0.859938 0.74903
493 1 0.545192 0.882213 0.727924
494 3 0.551363 0.880825 0.71077
495 4 0.54691 0.891467 0.733294
496 1 0.572768 0.879305 0.717258
497 3 0.577611 0.873091 0.701671
498 4 0.58097 0.875074 0.724269
499 1 0.56355 0.858352 0.702939
500 3 0.560034 0.860929 0.685263
501 4 0.557691 0.85075 0.708159
502 1 0.541442 0.869787 0.688992
503 3 0.541598 0.881354 0.676686
504 4 0.530271 0.869059 0.692795
505 1 0.555582 0.891996 0.685561
506 3 0.562144 0.895234 0.669078
507 4 0.561284 0.898209 0.693616
508 1 0.575346 0.880428 0.668332
509 3 0.568002 0.879635 0.651402
510 4 0.581908 0.872497 0.67139
511 1 0.550191 0.869654 0.65886
512 3 0.540973 0.87481 0.644615
513 5 0.559878 0.803028 0.618256
514 1 0.538395 0.892789 0.652223
515 3 0.53613 0.897151 0.634621
516 4 0.537536 0.901249 0.658935
517 1 0.557535 0.8953 0.630594
518 3 0.55191 0.890343 0.613962
519 4 0.569565 0.895763 0.631116
520 1 0.551363 0.871902 0.61881
521 3 0.536521 0.86397 0.61247
522 4 0.559175 0.863639 0.62142
523 1 0.521444 0.871307 0.625224
524 3 0.505429 0.878842 0.623061
525 4 0.516756 0.867076 0.635069
526 1 0.514179 0.895829 0.621569
527 3 0.515194 0.904158 0.606205
528 4 0.511757 0.900258 0.631936
529 1 0.533552 0.912618 0.611501
530 3 0.532693 0.914469 0.593601
531 4 0.543161 0.917245 0.61702
532 1 0.542926 0.899134 0.588678
533 3 0.530818 0.898539 0.575776
534 4 0.551754 0.892128 0.588753
535 1 0.516678 0.88717 0.582637
536 3 0.505429 0.896292 0.572345
537 4 0.512304 0.879305 0.588678
538 1 0.493711 0.902703 0.588902
539 3 0.489727 0.917774 0.588529
540 4 0.487071 0.901448 0.598523
541 1 0.508788 0.92326 0.582936
542 3 0.511757 0.926168 0.565707
543 4 0.513163 0.928944 0.591363
544 1 0.532068 0.922335 0.56511
545 3 0.527615 0.920153 0.548106
546 4 0.544098 0.920616 0.566378
547 1 0.521287 0.902968 0.549746
548 3 0.509804 0.90581 0.535427
549 4 0.521053 0.893185 0.551686
550 1 0.493399 0.913147 0.546912
551 3 0.491212 0.922929 0.533189
552 4 0.486056 0.915262 0.554893
553 1 0.506757 0.935092 0.53744
554 3 0.510898 0.934364 0.520286
555 4 0.513866 0.940974 0.543332
556 1 0.526287 0.921145 0.521629
557 3 0.521053 0.919228 0.5044
558 4 0.532849 0.913147 0.525358
559 1 0.50207 0.91004 0.509472
560 3 0.496211 0.918501 0.494481
561 4 0.494258 0.904819 0.51611
562 1 0.488477 0.933241 0.504848
563 3 0.490508 0.941966 0.490528
564 4 0.484181 0.938991 0.513723
565 1 0.511679 0.943684 0.493884
566 3 0.5141 0.942032 0.476357
567 4 0.522772 0.946262 0.498583
568 1 0.513319 0.924384 0.475164
569 3 0.50457 0.926234 0.458607
570 4 0.513554 0.914205 0.477402
571 1 0.485431 0.929671 0.468303
572 3 0.480822 0.940644 0.456817
573 4 0.476291 0.926168 0.475761
574 1 0.492618 0.954062 0.465618
575 3 0.501523 0.960738 0.452789
576 4 0.493243 0.961134 0.473971
577 1 0.516991 0.94884 0.449508
578 3 0.508866 0.94071 0.435263
579 4 0.525896 0.941966 0.451447
580 1 0.513866 0.952475 0.420122
581 3 0.52449 0.948576 0.405355
582 4 0.51121 0.961399 0.414827
583 1 0.542223 0.943023 0.415871
584 3 0.540895 0.926829 0.418482
585 4 0.549801 0.944279 0.425343
586 1 0.543708 0.922004 0.399314
587 3 0.549254 0.914932 0.384472
588 4 0.533318 0.917642 0.397971
589 1 0.560269 0.929539 0.377312
590 3 0.571987 0.920087 0.368213
591 4 0.565659 0.938925 0.375597
592 1 0.581908 0.913147 0.386635
593 3 0.570034 0.90072 0.386262
594 4 0.584251 0.912949 0.397822
595 1 0.583314 0.890607 0.374478
596 3 0.6005 0.889814 0.368437
597 4 0.575424 0.890409 0.365826
598 1 0.602531 0.871968 0.369332
599 3 0.606984 0.860334 0.357697
600 4 0.605578 0.866151 0.378431
601 1 0.586517 0.861326 0.348374
602 3 0.596438 0.870844 0.337112
603 4 0.575111 0.864829 0.346659
604 1 0.604484 0.855311 0.326298
605 3 0.598391 0.865622 0.314066
606 4 0.60464 0.846322 0.32145
607 1 0.618702 0.872166 0.309666
608 3 0.631513 0.879503 0.320629
609 4 0.610343 0.880032 0.307578
610 1 0.648153 0.877057 0.306981
611 3 0.659792 0.887369 0.300641
612 4 0.654793 0.868861 0.302581
613 1 0.644168 0.89768 0.292064
614 3 0.628857 0.905612 0.298255
615 4 0.640497 0.895499 0.281548
616 1 0.642137 0.919625 0.305788
617 3 0.640809 0.90852 0.318392
618 5 0.644715 0.864686 0.289088
619 1 0.631357 0.921079 0.332339
620 3 0.614171 0.920352 0.325776
621 4 0.631357 0.929011 0.339648
622 1 0.607687 0.904819 0.336888
623 3 0.589641 0.908652 0.335173
624 4 0.608859 0.897151 0.344272
625 1 0.590579 0.921674 0.351134
626 3 0.585735 0.92868 0.335173
627 4 0.59636 0.92835 0.358294
628 1 0.565893 0.931324 0.340916
629 3 0.571205 0.945667 0.346957
630 4 0.5548 0.930927 0.345987
631 1 0.570268 0.953599 0.327416
632 3 0.562144 0.966554 0.334651
633 4 0.570034 0.955119 0.31608
634 1 0.541598 0.959283 0.334203
635 3 0.537536 0.94646 0.342035
636 4 0.533396 0.958821 0.325328
637 1 0.531833 0.95393 0.360382
638 3 0.515663 0.945799 0.360829
639 4 0.535193 0.95935 0.369481
640 1 0.503086 0.960936 0.361053
641 3 0.489102 0.951947 0.355683
642 4 0.499961 0.970652 0.361277
643 1 0.495586 0.950492 0.335695
644 3 0.511054 0.950426 0.325552
645 4 0.486681 0.956838 0.332563
646 1 0.505195 0.935885 0.314215
647 3 0.498398 0.944279 0.299523
648 4 0.501055 0.926234 0.310934
649 1 0.517147 0.946989 0.290573
650 3 0.532224 0.938198 0.28662
651 4 0.522303 0.956045 0.2902
652 1 0.50957 0.937735 0.272002
653 3 0.515741 0.952277 0.26611
654 4 0.507773 0.929539 0.265737
655 1 0.50082 0.955119 0.251193
656 3 0.491915 0.965298 0.262604
657 4 0.491055 0.953136 0.244555
658 1 0.50457 0.979642 0.259397
659 3 0.496446 0.993258 0.254773
660 4 0.514413 0.983079 0.26432
661 1 0.500039 0.990284 0.234039
662 3 0.485665 0.979576 0.234039
663 4 0.506601 0.989556 0.224418
664 1 0.470901 0.992002 0.228446
665 3 0.458792 0.993721 0.215245
666 4 0.464182 0.999736 0.232921
667 1 0.471291 0.988763 0.199582
668 3 0.48254 0.9768 0.198165
669 4 0.476213 0.996365 0.194511
670 1 0.46926 0.966885 0.184964
671 3 0.482775 0.971379 0.173777
672 4 0.46012 0.963514 0.178028
673 1 0.491212 0.954591 0.173926
674 3 0.47676 0.948443 0.165498
675 4 0.499102 0.948047 0.178699
676 1 0.487071 0.945138 0.147598
677 3 0.490899 0.930729 0.154684
678 4 0.494415 0.945932 0.138425
679 1 0.476135 0.92207 0.142079
680 3 0.490743 0.920616 0.130519
681 4 0.465979 0.920352 0.136486
682 1 0.492774 0.90191 0.134024
683 3 0.510819 0.899927 0.12858
684 4 0.489259 0.900919 0.122763
685 1 0.519491 0.910767 0.144317
686 3 0.535739 0.906934 0.151029
687 4 0.519881 0.920352 0.148046
688 1 0.52824 0.896027 0.165573
689 3 0.520272 0.882015 0.163559
690 4 0.524022 0.899332 0.175567
691 1 0.539333 0.872497 0.160874
692 3 0.540348 0.866349 0.177581
693 4 0.550973 0.870183 0.158189
694 1 0.521053 0.860136 0.16065
695 3 0.509179 0.851543 0.170868
696 4 0.52574 0.853659 0.153043
697 1 0.491134 0.859872 0.161471
698 3 0.479416 0.8643 0.174523
699 4 0.486603 0.850354 0.162366
700 1 0.492383 0.878644 0.181086
701 3 0.485196 0.889219 0.169526
702 4 0.503476 0.881552 0.185188
703 1 0.472776 0.898143 0.183473
704 3 0.484962 0.904885 0.194585
705 4 0.462776 0.897151 0.189812
706 1 0.48254 0.921872 0.188693
707 3 0.469338 0.92326 0.201223
708 4 0.480119 0.929473 0.181533
709 1 0.484493 0.925045 0.217258
710 3 0.474729 0.938529 0.214797
711 5 0.486056 0.857797 0.213623
712 1 0.465354 0.937802 0.233741
713 3 0.456449 0.940313 0.248434
714 4 0.454808 0.936414 0.2277
715 1 0.468792 0.928812 0.25977
716 3 0.483712 0.938 0.263499
717 4 0.473088 0.919492 0.262977
718 1 0.473791 0.945998 0.279535
719 3 0.460589 0.940313 0.289081
720 4 0.473322 0.95578 0.277446
721 1 0.47301 0.938793 0.307503
722 3 0.462542 0.951616 0.311083
723 5 0.475978 0.867557 0.29638
724 1 0.44934 0.942957 0.324806
725 3 0.463167 0.949567 0.334427
726 4 0.442856 0.935488 0.3304
727 1 0.45098 0.963712 0.341587
728 3 0.444887 0.968736 0.357249
729 4 0.448871 0.973561 0.337634
730 1 0.439966 0.952938 0.364708
731 3 0.449652 0.939454 0.361351
732 4 0.428248 0.951352 0.367542
733 1 0.458011 0.937074 0.379997
734 3 0.443403 0.929275 0.386933
735 4 0.463792 0.938925 0.390289
736 1 0.449106 0.913015 0.378058
737 3 0.462698 0.905215 0.38753
738 4 0.449496 0.908652 0.367542
739 1 0.450512 0.895565 0.398866
740 3 0.433716 0.889484 0.399985
741 4 0.450668 0.900853 0.409084
742 1 0.442309 0.871571 0.404236
743 3 0.436997 0.864565 0.419749
744 4 0.445043 0.86278 0.399016
745 1 0.451996 0.873554 0.43116
746 3 0.445278 0.879701 0.446375
747 4 0.463714 0.872827 0.434144
748 1 0.43231 0.891929 0.437649
749 3 0.434497 0.90343 0.449881
750 4 0.424498 0.888162 0.445928
751 1 0.452933 0.910569 0.440782
752 3 0.447856 0.92445 0.447494
753 4 0.463167 0.910767 0.435486
754 1 0.437544 0.930663 0.431011
755 3 0.427857 0.939322 0.441975
756 4 0.434497 0.932382 0.420048
757 1 0.413093 0.927226 0.446674
758 3 0.412468 0.930399 0.465543
759 4 0.404343 0.92055 0.446375
760 1 0.430748 0.922335 0.470316
761 3 0.435747 0.934364 0.480832
762 4 0.438716 0.915064 0.471286
763 1 0.444028 0.944676 0.464573
764 3 0.435278 0.957234 0.471659
765 4 0.44934 0.946527 0.454057
766 1 0.416999 0.955119 0.460173
767 3 0.409499 0.963117 0.4733
768 4 0.408796 0.952674 0.452416
769 1 0.407937 0.949765 0.486501
770 3 0.415202 0.951352 0.503654
771 4 0.402078 0.941437 0.489782
772 1 0.434497 0.953202 0.49821
773 3 0.436528 0.958821 0.514842
774 4 0.445512 0.953269 0.493288
775 1 0.432857 0.976601 0.510367
776 3 0.427388 0.97713 0.527223
777 5 0.431451 0.918023 0.48117
778 1 0.406609 0.971313 0.523344
779 3 0.408093 0.963382 0.539156
780 4 0.39575 0.970388 0.518869
781 1 0.416608 0.948113 0.530803
782 3 0.426295 0.946593 0.546241
783 4 0.419498 0.940446 0.523195
784 1 0.441919 0.958358 0.540946
785 3 0.442075 0.961795 0.558249
786 4 0.449262 0.96391 0.534681
787 1 0.425045 0.974023 0.556608
788 3 0.42153 0.968868 0.573165
789 4 0.418249 0.981492 0.551462
790 1 0.410202 0.955053 0.568168
791 3 0.418561 0.948377 0.582563
792 4 0.402156 0.94884 0.562798
793 1 0.43606 0.943023 0.573389
794 3 0.443325 0.945733 0.5892
795 4 0.443715 0.93919 0.564961
796 1 0.449418 0.963712 0.585471
797 3 0.446293 0.96477 0.603073
798 4 0.451683 0.971974 0.579729
799 1 0.425514 0.96781 0.602551
800 3 0.427232 0.95935 0.617542
801 4 0.414655 0.969727 0.598896
802 1 0.423561 0.943354 0.609711
803 3 0.433716 0.934298 0.620674
804 4 0.418874 0.936281 0.603222
805 1 0.452621 0.940842 0.612619
806 3 0.464651 0.945006 0.625075
807 4 0.460433 0.941305 0.60352
808 1 0.453636 0.961068 0.630072
809 3 0.464104 0.960209 0.644391
810 4 0.446918 0.969595 0.63037
811 1 0.452074 0.949831 0.656474
812 3 0.46637 0.942164 0.663708
813 4 0.441919 0.946857 0.66065
814 1 0.469651 0.93139 0.646778
815 3 0.487618 0.932646 0.650955
816 4 0.467307 0.925243 0.637977
817 1 0.490508 0.948311 0.64014
818 3 0.502383 0.952145 0.653565
819 4 0.489415 0.955582 0.631489
820 1 0.488321 0.962192 0.663857
821 3 0.498789 0.957433 0.677431
822 4 0.480822 0.969925 0.666244
823 1 0.489024 0.942627 0.682056
824 3 0.505898 0.938396 0.687724
825 4 0.481056 0.935158 0.684367
826 1 0.511757 0.930597 0.670197
827 3 0.529802 0.935686 0.672211
828 4 0.511757 0.925177 0.660427
829 1 0.527224 0.951814 0.666169
830 3 0.537927 0.953665 0.68034
831 4 0.525193 0.959548 0.659905
832 1 0.523162 0.958226 0.694212
833 3 0.535349 0.953533 0.70622
834 4 0.512226 0.960738 0.698314
835 1 0.53199 0.935158 0.703684
836 3 0.550035 0.932844 0.706295
837 4 0.525975 0.927094 0.700254
838 1 0.556128 0.935819 0.686232
839 3 0.570893 0.941173 0.694884
840 4 0.556675 0.935356 0.675343
841 1 0.564878 0.95968 0.69205
842 3 0.574252 0.964571 0.70719
843 4 0.559175 0.96781 0.687649
844 1 0.560894 0.957631 0.720316
845 3 0.569487 0.948906 0.732921
846 4 0.549801 0.958623 0.725537
847 1 0.573471 0.9341 0.720242
848 3 0.57058 0.920814 0.730832
849 4 0.584486 0.935092 0.725015
850 1 0.550738 0.922665 0.734263
851 3 0.53738 0.931588 0.727476
852 4 0.552613 0.925177 0.745376
853 1 0.521522 0.919096 0.729863
854 3 0.516132 0.929341 0.74202
855 4 0.515272 0.910635 0.731504
856 1 0.499883 0.936083 0.730683
857 3 0.490977 0.930002 0.745152
858 4 0.490587 0.93681 0.723449
859 1 0.491993 0.945799 0.756414
860 3 0.475978 0.95274 0.752387
861 4 0.497149 0.954921 0.760591
862 1 0.463323 0.939718 0.759621
863 3 0.448949 0.949501 0.761709
864 4 0.459652 0.930597 0.764618
865 1 0.457855 0.958556 0.778043
866 3 0.446137 0.969991 0.772449
867 4 0.46387 0.961002 0.787589
868 1 0.462308 0.978254 0.759994
869 3 0.461683 0.985194 0.744033
870 4 0.471057 0.984269 0.763798
871 1 0.465354 0.967942 0.734114
872 3 0.453793 0.95935 0.724642
873 4 0.475432 0.963778 0.730236
874 1 0.439966 0.955912 0.74202
875 3 0.427076 0.952938 0.729564
876 5 0.449184 0.88373 0.702835
877 1 0.421295 0.970586 0.725388
878 3 0.417077 0.964373 0.709576
879 4 0.422545 0.980435 0.725761
880 1 0.438325 0.962258 0.703311
881 3 0.435591 0.948311 0.695182
882 4 0.448402 0.967017 0.699881
883 1 0.440044 0.938925 0.712187
884 3 0.424889 0.928746 0.708159
885 4 0.444262 0.935951 0.72233
886 1 0.410437 0.939124 0.714424
887 3 0.40325 0.932117 0.700179
888 4 0.403328 0.945337 0.720764
889 1 0.407 0.94613 0.687351
890 3 0.407234 0.933703 0.676536
891 4 0.409109 0.955318 0.682652
892 1 0.42942 0.929275 0.67952
893 3 0.424967 0.914932 0.673851
894 4 0.441059 0.929936 0.683398
895 1 0.416764 0.908983 0.691527
896 3 0.404422 0.901448 0.681086
897 4 0.415358 0.906603 0.702566
898 1 0.389657 0.916386 0.68213
899 3 0.383251 0.910569 0.666915
900 4 0.383954 0.924516 0.68474
901 1 0.400359 0.919294 0.655653
902 3 0.400125 0.906273 0.645585
903 4 0.408171 0.926433 0.652894
904 1 0.412155 0.896094 0.657816
905 3 0.403406 0.883469 0.652223
906 5 0.408952 0.829599 0.61654
907 1 0.384892 0.886443 0.662589
908 3 0.375752 0.882411 0.647524
909 4 0.37708 0.889352 0.670868
910 1 0.373565 0.8992 0.640662
911 3 0.372471 0.893846 0.62403
912 4 0.372705 0.909379 0.640662
913 1 0.395594 0.89074 0.623135
914 3 0.392938 0.877652 0.612321
915 4 0.407312 0.891797 0.625895
916 1 0.388173 0.866746 0.627909
917 3 0.376299 0.860599 0.615677