LAMMPS protain data file

        8634  atoms
       11502  bonds
           0  angles
           0  dihedrals
           0  impropers

           5  atom types
           5  bond types
           0  angle types
           0  dihedral types
           0  improper types

-200.0	200.0	xlo xhi
-200.0	200.0	ylo yhi
-200.0	200.0	zlo zhi

Masses

           1	27.0
           2	14.0
           3	28.0
           4	60.0
           5	60.0

Atoms

           1	1	1	1	0.0	90.16	164.47	102.71
           2	1	1	3	0.0	87.78001	164.12	103.3
           3	1	1	4	0.0	90.53	165.45	101.58
           4	1	2	1	0.0	87.12	162.73	100.96
           5	1	2	3	0.0	87.46001	160.55	102.12001
           6	1	2	4	0.0	87.11	162.2	99.48
           7	1	3	1	0.0	84.87	160.4	103.08999
           8	1	3	3	0.0	84.77	158.89	101.23001
           9	1	3	4	0.0	83.4	160.87	103.49
          10	1	4	1	0.0	84.42	156.63	102.75
          11	1	4	3	0.0	83.26	155.75	100.91001
          12	1	4	4	0.0	84.39	155.65	104.0
          13	1	5	1	0.0	80.81	157.29	101.49999
          14	1	5	3	0.0	80.64	157.64	99.15
          15	1	5	4	0.0	79.54	157.79	102.29
          16	1	6	1	0.0	82.18	160.02	99.08999
          17	1	6	3	0.0	83.14	159.1	96.96
          18	1	6	4	0.0	83.08	161.35	99.43
          19	1	7	1	0.0	84.76	157.32	97.99999
          20	1	7	3	0.0	84.45	155.67	96.28999
          21	1	7	4	0.0	86.06999	157.01	98.700005
          22	1	8	1	0.0	82.15	154.5	97.58
          23	1	8	3	0.0	81.07	154.12	95.55
          24	1	8	4	0.0	81.26	153.91	98.69001
          25	1	9	1	0.0	80.19	156.84	95.36
          26	1	9	3	0.0	80.75	156.74	93.02
          27	1	9	4	0.0	79.63	158.14	95.83001
          28	1	10	1	0.0	83.43	157.43	93.32
          29	1	10	3	0.0	83.99	155.85	91.649994
          30	1	10	4	0.0	84.76	158.07	93.78
          31	1	11	1	0.0	83.82	153.54	93.17
          32	1	11	3	0.0	82.53	152.39	91.51
          33	1	11	4	0.0	84.17	152.55	94.31
          34	1	12	1	0.0	80.12	153.38	92.0
          35	1	12	3	0.0	79.95	153.35	89.58
          36	1	12	4	0.0	78.94	153.97	92.85
          37	1	13	1	0.0	80.83	155.94	89.299995
          38	1	13	3	0.0	81.78	155.2	87.32
          39	1	13	4	0.0	81.1	157.38	89.62999
          40	1	14	1	0.0	84.16	154.26	88.4
          41	1	14	3	0.0	83.98	152.68	86.59
          42	1	14	4	0.0	85.52	153.95	89.14
          43	1	15	1	0.0	82.05	151.18	87.88
          44	1	15	3	0.0	80.84	150.81	85.85
          45	1	15	4	0.0	81.44	150.43	89.05999
          46	1	16	1	0.0	79.52	153.25	85.83
          47	1	16	3	0.0	79.92	153.38	83.41
          48	1	16	4	0.0	78.52	154.25	86.380005
          49	1	17	1	0.0	82.57	154.36	83.55
          50	1	17	3	0.0	82.91	153.12	81.53
          51	1	17	4	0.0	83.85	155.01	84.15
          52	1	18	1	0.0	83.33	150.68	82.74
          53	1	18	3	0.0	82.4	149.8	80.79
          54	1	18	4	0.0	83.76	149.58	83.67
          55	1	19	1	0.0	79.71	150.38	81.49
          56	1	19	3	0.0	79.66	150.69	79.15
          57	1	19	4	0.0	78.43	150.46	82.37
          58	1	20	1	0.0	80.29	153.47	79.28
          59	1	20	3	0.0	81.16	152.95	77.04
          60	1	20	4	0.0	80.64	154.94	79.7
          61	1	21	1	0.0	83.66	152.32	78.04
          62	1	21	3	0.0	83.8	150.92	76.07
          63	1	21	4	0.0	84.88	152.09	78.94
          64	1	22	1	0.0	82.73	148.69	77.36
          65	1	22	3	0.0	81.49	148.16	75.38
          66	1	22	4	0.0	82.25	147.68	78.52
          67	1	23	1	0.0	79.49	149.88	75.66
          68	1	23	3	0.0	79.38	149.85	73.29
          69	1	23	4	0.0	78.36	150.7	76.34
          70	1	24	1	0.0	81.48	151.85	73.13
          71	1	24	3	0.0	82.18	150.79	71.06
          72	1	24	5	0.0	80.85	143.35631863	67.88799958
          73	1	25	1	0.0	83.86	148.94	72.51
          74	1	25	3	0.0	83.54	147.22	70.9
          75	1	25	4	0.0	84.79	148.32	73.61
          76	1	26	1	0.0	81.03	146.55	71.63
          77	1	26	3	0.0	80.56	146.55	69.3
          78	1	26	4	0.0	79.78	146.18	72.48
          79	1	27	1	0.0	79.9	149.27	69.06
          80	1	27	3	0.0	80.84	149.54	66.88
          81	1	27	4	0.0	79.4	150.73	69.42
          82	1	28	1	0.0	83.53	149.37	67.69
          83	1	28	3	0.0	83.89	148.36	65.5
          84	1	28	4	0.0	84.87	149.52	68.49
          85	1	29	1	0.0	83.47	145.7	66.48
          86	1	29	3	0.0	82.07	144.6	64.9
          87	1	29	4	0.0	84.17	144.56	67.35
          88	1	30	1	0.0	79.74	144.97	66.14
          89	1	30	3	0.0	77.58	145.66	65.4
          90	1	30	4	0.0	79.04	144.23	67.31
          91	1	31	1	0.0	78.43	148.13	64.38
          92	1	31	3	0.0	80.45	148.83	63.45
          93	1	31	4	0.0	77.7	149.08	65.39
          94	1	32	1	0.0	79.24	149.94	61.060005
          95	1	32	3	0.0	80.17	151.9	62.14
          96	1	32	4	0.0	78.1	150.5	60.1
          97	1	33	1	0.0	82.62	151.75	60.73
          98	1	33	3	0.0	82.17	152.5	58.4
          99	1	33	4	0.0	83.98	151.02	60.79
         100	1	34	1	0.0	82.82	155.08	58.809998
         101	1	34	3	0.0	83.24	155.05	56.41
         102	1	34	4	0.0	83.32	156.35	59.419994
         103	1	35	1	0.0	85.89	154.24	56.8
         104	1	35	3	0.0	85.69	151.83	56.99
         105	1	35	4	0.0	87.340004	154.55	57.34
         106	1	36	1	0.0	85.57	151.41	54.2
         107	1	36	3	0.0	86.09	149.23	54.809998
         108	1	36	4	0.0	85.79	151.58	52.620003
         109	1	37	1	0.0	88.88	149.59	55.13
         110	1	37	3	0.0	88.78	147.84	56.77
         111	1	37	4	0.0	90.34	150.08	55.02
         112	1	38	1	0.0	87.78001	149.49	58.87
         113	1	38	3	0.0	86.17	147.94	59.55
         114	1	38	4	0.0	87.74	150.75	59.82
         115	1	39	1	0.0	84.17	148.63	57.69
         116	1	39	3	0.0	83.5	146.29	57.71
         117	1	39	4	0.0	83.2	149.55	56.8
         118	1	40	1	0.0	85.5	145.58	55.85
         119	1	40	3	0.0	87.020004	143.88	56.18
         120	1	40	4	0.0	85.99	145.68	54.369995
         121	1	41	1	0.0	87.73	144.82	58.85
         122	1	41	3	0.0	89.93001	143.91	59.11
         123	1	41	4	0.0	87.13	143.58	59.46
         124	1	42	1	0.0	90.92	144.78	56.740005
         125	1	42	3	0.0	93.16001	145.25	57.59
         126	1	42	4	0.0	91.04	144.83	55.219997
         127	1	43	1	0.0	92.34	147.39	59.2
         128	1	43	3	0.0	90.53	147.64	60.63
         129	1	43	4	0.0	92.350006	148.89	58.8
         130	1	44	1	0.0	91.76	146.09	62.64
         131	1	44	3	0.0	92.43	145.96	64.97
         132	1	44	4	0.0	91.79	144.57	62.38
         133	1	45	1	0.0	94.36	148.06	64.91
         134	1	45	3	0.0	93.54	148.07	67.18
         135	1	45	4	0.0	95.32	149.18	64.35
         136	1	46	1	0.0	91.58001	150.21	66.72
         137	1	46	3	0.0	90.02	149.45	68.35
         138	1	46	4	0.0	90.9	151.37	65.97
         139	1	47	1	0.0	89.17	147.29	66.77
         140	1	47	3	0.0	89.29	146.07	68.8
         141	1	47	4	0.0	88.62	146.52	65.53
         142	1	48	1	0.0	91.93	145.17	68.27
         143	1	48	3	0.0	92.06	145.26	70.72
         144	1	48	4	0.0	93.240005	144.7	67.59
         145	1	49	1	0.0	92.53	147.98	70.81
         146	1	49	3	0.0	91.3	147.77	72.8
         147	1	49	4	0.0	92.96	149.5	70.56
         148	1	50	1	0.0	88.76	147.88	71.6
         149	1	50	3	0.0	88.06	146.32	73.43
         150	1	50	4	0.0	87.590004	148.19	70.63
         151	1	51	1	0.0	88.89	144.13	72.16
         152	1	51	3	0.0	89.47	143.22	74.37
         153	1	51	4	0.0	89.21	143.13	71.01
         154	1	52	1	0.0	92.05	144.32	74.48
         155	1	52	3	0.0	91.329994	144.55	76.73
         156	1	52	4	0.0	93.48001	144.79	74.04
         157	1	53	1	0.0	90.31999	147.17	76.37
         158	1	53	3	0.0	89.03	146.42	78.24
         159	1	53	4	0.0	89.9	148.46	75.56
         160	1	54	1	0.0	87.08999	145.09	76.66
         161	1	54	3	0.0	86.82001	143.54	78.47
         162	1	54	4	0.0	86.16	145.0	75.53
         163	1	55	1	0.0	88.88	141.82	77.58
         164	1	55	3	0.0	89.30999	141.62	79.9
         165	1	55	4	0.0	89.74	141.02	76.58
         166	1	56	1	0.0	90.81	143.95	80.2
         167	1	56	3	0.0	89.65	144.18	82.36
         168	1	56	4	0.0	91.88	145.0	79.88
         169	1	57	1	0.0	87.54	145.49	81.42
         170	1	57	3	0.0	86.130005	144.57	83.09
         171	1	57	5	0.0	88.659996	137.3274599	76.64456538
         172	1	58	1	0.0	85.73	142.11	81.86
         173	1	58	3	0.0	85.7	141.08	84.09
         174	1	58	4	0.0	85.54	140.96	80.84
         175	1	59	1	0.0	88.56	141.13	84.26
         176	1	59	3	0.0	88.72001	141.82	86.57001
         177	1	59	4	0.0	89.96	141.0	83.79
         178	1	60	1	0.0	88.41999	144.54	85.98
         179	1	60	3	0.0	86.91	144.7	87.86
         180	1	60	4	0.0	88.91001	145.88	85.41
         181	1	61	1	0.0	84.54	144.38	86.16
         182	1	61	3	0.0	83.56	144.55	88.27
         183	1	61	4	0.0	83.6	143.81	85.03
         184	1	62	1	0.0	83.81	142.01	89.1
         185	1	62	3	0.0	83.8	142.73	91.26001
         186	1	62	4	0.0	83.98	140.51	88.95
         187	1	63	1	0.0	86.63999	143.58	91.25
         188	1	63	3	0.0	86.1	145.61	92.350006
         189	1	63	4	0.0	88.15001	143.51	90.88
         190	1	64	1	0.0	85.36	147.04	90.22
         191	1	64	3	0.0	83.73	148.01	91.66
         192	1	64	4	0.0	85.28	147.7	88.81
         193	1	65	1	0.0	81.84	146.06	91.399994
         194	1	65	3	0.0	81.26	146.04	93.810005
         195	1	65	4	0.0	80.88	145.17	90.65
         196	1	66	1	0.0	83.24	144.24	94.46
         197	1	66	3	0.0	83.86	145.42	96.51
         198	1	66	4	0.0	84.16	143.08	94.37001
         199	1	67	1	0.0	85.22	147.49	95.35
         200	1	67	3	0.0	84.34	148.52	97.29
         201	1	67	4	0.0	86.03	148.37	94.46
         202	1	68	1	0.0	81.98	149.28	96.13
         203	1	68	3	0.0	81.24	149.16	98.380005
         204	1	68	4	0.0	80.85	149.58	95.16
         205	1	69	1	0.0	80.65	146.36	98.28
         206	1	69	3	0.0	81.27	146.53	100.659996
         207	1	69	4	0.0	80.44	144.91	97.67
         208	1	70	1	0.0	83.92	145.85	100.11
         209	1	70	3	0.0	84.59	147.29	101.96
         210	1	70	4	0.0	85.1	145.05	99.54
         211	1	71	1	0.0	83.99	149.64	100.46
         212	1	71	3	0.0	85.59	151.33	101.02
         213	1	71	5	0.0	83.96	141.09867508	94.39862519
         214	1	72	1	0.0	87.84	149.76	100.37
         215	1	72	3	0.0	88.31	148.09	98.759995
         216	1	72	4	0.0	88.350006	149.34	101.78
         217	1	73	1	0.0	90.439995	149.36	97.61001
         218	1	73	3	0.0	91.590004	147.75	98.93
         219	1	73	4	0.0	91.29	150.58	97.07
         220	1	74	1	0.0	92.0	146.06	96.64
         221	1	74	3	0.0	92.09999	143.9	97.62999
         222	1	74	4	0.0	92.63	145.94	95.20999
         223	1	75	1	0.0	89.51	143.09	97.299995
         224	1	75	3	0.0	88.83	141.29	95.94
         225	1	75	4	0.0	88.03001	143.59	97.240005
         226	1	76	1	0.0	91.5	140.6	95.18
         227	1	76	3	0.0	93.67	140.83	96.07
         228	1	76	4	0.0	91.74	141.23	93.77
         229	1	77	1	0.0	94.06999	138.19	96.69
         230	1	77	3	0.0	95.45	138.9	94.759995
         231	1	77	4	0.0	94.02	136.7	96.62
         232	1	78	1	0.0	97.76	139.48	96.32
         233	1	78	3	0.0	99.0	139.84	94.3
         234	1	78	4	0.0	98.73	139.64	97.52
         235	1	79	1	0.0	99.54	137.16	93.91
         236	1	79	3	0.0	99.22	137.71	91.62
         237	1	79	4	0.0	99.96	135.66	94.25001
         238	1	80	1	0.0	96.53999	137.57	91.69
         239	1	80	3	0.0	96.53999	139.45	90.18
         240	1	80	4	0.0	94.99	137.2	91.99
         241	1	81	1	0.0	96.32	141.36	92.21
         242	1	81	3	0.0	97.37	142.78	90.50001
         243	1	81	4	0.0	96.01	141.93	93.6
         244	1	82	1	0.0	100.04	142.03	91.20999
         245	1	82	3	0.0	100.59	142.46	88.97
         246	1	82	4	0.0	101.240005	141.34	91.90001
         247	1	83	1	0.0	99.73	140.07	87.96
         248	1	83	3	0.0	98.82001	141.41	86.08
         249	1	83	4	0.0	99.36	138.6	87.95
         250	1	84	1	0.0	96.18	141.56	87.329994
         251	1	84	3	0.0	95.62	143.53	85.98
         252	1	84	4	0.0	95.01001	141.21	88.350006
         253	1	85	1	0.0	97.17	145.27	87.649994
         254	1	85	3	0.0	98.33	146.46	85.85
         255	1	85	4	0.0	97.47	145.98	89.0
         256	1	86	1	0.0	100.350006	144.61	85.65
         257	1	86	3	0.0	100.44	145.27	83.37
         258	1	86	4	0.0	101.51	143.58	86.04
         259	1	87	1	0.0	98.26	143.82	82.58
         260	1	87	3	0.0	97.64	145.52	80.92
         261	1	87	4	0.0	97.25	142.65	82.67
         262	1	88	1	0.0	96.37	147.26	82.86
         263	1	88	3	0.0	97.490005	149.02	81.71
         264	1	88	4	0.0	95.42	147.63	84.07
         265	1	89	1	0.0	99.69	149.22	83.6
         266	1	89	3	0.0	101.04001	149.89	81.65
         267	1	89	4	0.0	100.57	149.03	84.88
         268	1	90	1	0.0	101.23001	147.3	80.57
         269	1	90	3	0.0	101.08	148.58	78.63
         270	1	90	4	0.0	101.23001	145.8	80.4
         271	1	91	1	0.0	98.15	148.68	78.63
         272	1	91	3	0.0	98.34	150.8	77.45
         273	1	91	4	0.0	96.77	148.12	78.61
         274	1	92	1	0.0	98.83	152.41	79.63
         275	1	92	3	0.0	100.49	153.42	78.23
         276	1	92	4	0.0	98.56	153.18	80.96
         277	1	93	1	0.0	102.59	152.13	79.24
         278	1	93	3	0.0	103.47	152.62	77.05
         279	1	93	4	0.0	103.48	151.19	79.99
         280	1	94	1	0.0	102.1	150.58	75.72
         281	1	94	3	0.0	101.7	151.92	73.78
         282	1	94	4	0.0	101.560005	149.13	75.37
         283	1	95	1	0.0	99.54	153.3	74.63
         284	1	95	3	0.0	100.5	155.2	73.57
         285	1	95	4	0.0	98.189995	153.55	75.25
         286	1	96	1	0.0	102.06	156.04	75.74
         287	1	96	3	0.0	103.72	156.78	74.06
         288	1	96	4	0.0	102.47	156.22	77.16
         289	1	97	1	0.0	104.87	154.33	73.69
         290	1	97	3	0.0	104.97	154.71	71.3
         291	1	97	4	0.0	105.47	152.91	73.96
         292	1	98	1	0.0	102.23	153.92	70.7
         293	1	98	3	0.0	102.16	155.74	69.16
         294	1	98	4	0.0	100.85999	153.21	70.75
         295	1	99	1	0.0	101.549995	157.66	71.14
         296	1	99	3	0.0	102.98	159.09	69.8
         297	1	99	4	0.0	100.85	158.37	72.29
         298	1	100	1	0.0	105.27	158.49	70.94
         299	1	100	3	0.0	106.31999	158.76	68.79
         300	1	100	4	0.0	106.380005	158.19	72.04
         301	1	101	1	0.0	105.94	156.15	68.07
         302	1	101	3	0.0	105.94999	156.86	65.83
         303	1	101	4	0.0	105.61001	154.69	68.12
         304	1	102	1	0.0	103.16	157.6	65.67
         305	1	102	3	0.0	103.52	159.46	64.33
         306	1	102	4	0.0	101.64	157.34	65.81
         307	1	103	1	0.0	104.43	160.98	66.42
         308	1	103	3	0.0	105.98	161.81	64.72
         309	1	103	4	0.0	104.68	161.62	67.8
         310	1	104	1	0.0	107.91	159.98	65.17
         311	1	104	3	0.0	108.45	160.08	62.73
         312	1	104	4	0.0	108.85	159.05	65.89
         313	1	105	1	0.0	106.55	158.13	62.02
         314	1	105	3	0.0	106.4	159.53	60.0
         315	1	105	4	0.0	105.53	156.92	62.2
         316	1	106	1	0.0	104.600006	161.32	61.060005
         317	1	106	3	0.0	105.68001	162.95	59.85
         318	1	106	4	0.0	103.26001	161.88	61.65
         319	1	107	1	0.0	107.61	163.72	61.890003
         320	1	107	3	0.0	108.95	164.12	60.01
         321	1	107	4	0.0	108.18	163.94	63.33
         322	1	108	1	0.0	109.97	161.44	59.699997
         323	1	108	3	0.0	110.08	161.9	57.410004
         324	1	108	4	0.0	110.59	160.1	60.049995
         325	1	109	1	0.0	107.329994	161.25	56.89
         326	1	109	3	0.0	107.17	162.51	54.83
         327	1	109	4	0.0	105.87999	160.85	57.219997
         328	1	110	1	0.0	107.51	164.97	56.06
         329	1	110	3	0.0	109.05	166.77	55.49
         330	1	110	4	0.0	106.48	165.89	56.67
         331	1	111	1	0.0	111.32	165.47	56.34
         332	1	111	3	0.0	111.07	164.45	54.16
         333	1	111	4	0.0	112.32	164.81	57.250004
         334	1	112	1	0.0	113.62999	165.69	53.21
         335	1	112	3	0.0	112.73999	164.48	51.37
         336	1	112	4	0.0	114.48	164.47	53.34
         337	1	113	1	0.0	111.36	166.47	50.049995
         338	1	113	3	0.0	109.33	165.55	49.21
         339	1	113	4	0.0	111.13	167.95	49.66
         340	1	114	1	0.0	108.41999	164.53	51.699997
         341	1	114	3	0.0	108.03001	163.19	49.76
         342	1	114	4	0.0	107.32	165.55	51.570004
         343	1	115	1	0.0	107.71001	160.8	51.259995
         344	1	115	3	0.0	105.4	161.35	51.18
         345	1	115	4	0.0	108.13	159.62	52.16
         346	1	116	1	0.0	104.8	159.56	49.060005
         347	1	116	3	0.0	106.34	158.17	47.9
         348	1	116	4	0.0	104.23	160.66	48.049995
         349	1	117	1	0.0	104.32	156.38	47.2
         350	1	117	3	0.0	101.9	156.12	47.31
         351	1	117	4	0.0	105.09	155.26	48.12
         352	1	118	1	0.0	101.84	154.31	45.24
         353	1	118	3	0.0	100.51	152.32	45.9
         354	1	118	4	0.0	101.97	153.93	43.730003
         355	1	119	1	0.0	102.6	151.47	47.75
         356	1	119	3	0.0	103.2	152.75	49.61
         357	1	119	4	0.0	103.92	150.73	47.45
         358	1	120	1	0.0	101.38	151.38	51.4
         359	1	120	3	0.0	101.15	149.07	51.72
         360	1	120	4	0.0	99.84999	151.64	51.72
         361	1	121	1	0.0	103.29	148.61	53.37
         362	1	121	3	0.0	102.68	149.05	55.570004
         363	1	121	4	0.0	104.81	148.56	53.730003
         364	1	122	1	0.0	100.97	146.76	55.639996
         365	1	122	3	0.0	101.85	146.11	57.69
         366	1	122	4	0.0	99.67	145.95	55.27
         367	1	123	1	0.0	103.71001	144.46	56.8
         368	1	123	3	0.0	104.83	145.02	58.73
         369	1	123	4	0.0	104.39	143.28	56.109997
         370	1	124	1	0.0	105.82	147.49	57.890003
         371	1	124	3	0.0	105.33	148.53	60.03
         372	1	124	4	0.0	106.58	148.54	57.01
         373	1	125	1	0.0	102.63999	149.01	59.5
         374	1	125	3	0.0	102.26	148.49	61.790005
         375	1	125	4	0.0	101.39	149.49	58.76
         376	1	126	1	0.0	101.96	145.75	61.5
         377	1	126	3	0.0	103.03	145.58	63.71
         378	1	126	4	0.0	101.72	144.35	60.85
         379	1	127	1	0.0	105.72	145.7	62.360004
         380	1	127	3	0.0	106.34	146.4	64.59
         381	1	127	4	0.0	106.75	145.77	61.219997
         382	1	128	1	0.0	105.6	149.04	64.04
         383	1	128	3	0.0	105.32	149.06	66.43
         384	1	128	4	0.0	105.54	150.4	63.34
         385	1	129	1	0.0	102.69001	147.82	66.39
         386	1	129	3	0.0	103.46001	146.98	68.56
         387	1	129	4	0.0	101.299995	147.24	66.03
         388	1	130	1	0.0	104.52	144.59	67.33
         389	1	130	3	0.0	106.130005	144.58	69.12
         390	1	130	4	0.0	104.659996	143.39	66.3
         391	1	131	1	0.0	107.91	146.38	67.99
         392	1	131	3	0.0	108.16999	146.95	70.32
         393	1	131	4	0.0	108.69	147.18	66.88
         394	1	132	1	0.0	106.04	148.87	70.31
         395	1	132	3	0.0	105.86	148.16	72.65
         396	1	132	4	0.0	105.09	149.9	69.81
         397	1	133	1	0.0	104.16	146.08	72.12
         398	1	133	3	0.0	105.42	145.29	74.06
         399	1	133	4	0.0	103.17	145.1	71.34
         400	1	134	1	0.0	107.39	144.01	72.69
         401	1	134	3	0.0	108.89	144.44	74.51
         402	1	134	4	0.0	108.16999	143.36	71.6
         403	1	135	1	0.0	109.46	147.0	74.04
         404	1	135	3	0.0	109.299995	147.51	76.39
         405	1	135	4	0.0	110.00001	148.21	73.33
         406	1	136	1	0.0	106.450005	147.9	76.27
         407	1	136	3	0.0	106.35	146.99	78.47
         408	1	136	4	0.0	105.08	148.29	75.71
         409	1	137	1	0.0	106.74	144.42	77.74
         410	1	137	3	0.0	108.3	144.55	79.52
         411	1	137	4	0.0	106.55	143.05	77.13
         412	1	138	1	0.0	110.57001	145.26	77.92
         413	1	138	3	0.0	111.04	145.77	80.19
         414	1	138	5	0.0	109.19	135.72665484	72.58167933
         415	1	139	1	0.0	110.3	148.55	79.93
         416	1	139	3	0.0	109.92	148.61	82.27
         417	1	139	4	0.0	110.09	149.92	79.36
         418	1	140	1	0.0	107.399994	147.33	82.16
         419	1	140	3	0.0	107.62	146.27	84.33
         420	1	140	4	0.0	105.94999	147.13	81.64
         421	1	141	1	0.0	109.0	144.01	83.31
         422	1	141	3	0.0	109.69	143.5	85.51
         423	1	141	4	0.0	109.54	143.04	82.33
         424	1	142	1	0.0	111.52999	145.4	85.82
         425	1	142	3	0.0	110.99	145.48	88.16999
         426	1	142	4	0.0	112.41999	146.55	85.4
         427	1	143	1	0.0	108.77	147.07	87.87
         428	1	143	3	0.0	108.37	146.0	89.98
         429	1	143	4	0.0	107.68	148.02	87.36
         430	1	144	1	0.0	107.38	143.74	89.25
         431	1	144	3	0.0	108.79001	142.61	90.87
         432	1	144	4	0.0	106.50001	142.83	88.43
         433	1	145	1	0.0	110.94001	142.2	89.09
         434	1	145	3	0.0	112.24	142.15	91.07
         435	1	145	4	0.0	111.75	142.11	87.83001
         436	1	146	1	0.0	112.16	145.03	91.48
         437	1	146	3	0.0	112.11	144.46	93.86
         438	1	146	4	0.0	112.19	146.57	91.1
         439	1	147	1	0.0	109.36001	144.12	93.83
         440	1	147	3	0.0	109.2	142.38	95.49
         441	1	147	5	0.0	110.15	135.49779432	88.67385834
         442	1	148	1	0.0	110.29	140.37	93.65
         443	1	148	3	0.0	112.01	139.54	95.14001
         444	1	148	4	0.0	110.4	139.51	92.41999
         445	1	149	1	0.0	113.91	141.52	94.380005
         446	1	149	3	0.0	115.020004	141.73	96.32
         447	1	149	4	0.0	114.65	142.44	93.36001
         448	1	150	1	0.0	113.08	143.26	97.560005
         449	1	150	3	0.0	110.71	143.8	97.39
         450	1	150	4	0.0	113.99999	144.56	97.74999
         451	1	151	1	0.0	110.12001	142.55	99.79
         452	1	151	3	0.0	108.56	143.95	101.12
         453	1	151	4	0.0	110.09	141.26	100.7
         454	1	152	1	0.0	110.189995	146.25	100.95
         455	1	152	3	0.0	109.27	148.25	100.08
         456	1	152	4	0.0	111.35	146.95	101.78
         457	1	153	1	0.0	109.78	147.58	97.39
         458	1	153	3	0.0	108.28999	146.04	96.3
         459	1	153	4	0.0	111.12	147.42	96.56
         460	1	154	1	0.0	106.759995	148.26	95.13
         461	1	154	3	0.0	104.51	148.69	95.91
         462	1	154	4	0.0	107.079994	147.46	93.80001
         463	1	155	1	0.0	104.26	145.98	97.02
         464	1	155	3	0.0	103.56	145.48	99.270004
         465	1	155	4	0.0	104.26	144.44	96.729996
         466	1	156	1	0.0	105.08	147.64	100.4
         467	1	156	3	0.0	102.94001	148.63	100.11
         468	1	156	4	0.0	106.11	148.72	100.78
         469	1	157	1	0.0	102.11	147.93	102.83999
         470	1	157	3	0.0	99.82	148.03	102.22
         471	1	157	4	0.0	101.93001	149.37	103.3
         472	1	158	1	0.0	99.91	145.44	100.89
         473	1	158	3	0.0	98.24	146.13	99.3
         474	1	158	5	0.0	100.94	135.11304775	94.51836784
         475	1	159	1	0.0	99.93	147.64	97.77
         476	1	159	3	0.0	100.84	146.03	96.12
         477	1	159	4	0.0	101.0	148.74	97.560005
         478	1	160	1	0.0	98.57001	146.35	94.49
         479	1	160	3	0.0	98.02	147.37	92.37
         480	1	160	4	0.0	97.29	145.36	94.63
         481	1	161	1	0.0	98.89001	149.86	92.98999
         482	1	161	3	0.0	99.41	150.29	90.73
         483	1	161	4	0.0	99.52	151.01	93.92
         484	1	162	1	0.0	101.74999	148.76	90.63999
         485	1	162	3	0.0	103.48	149.97	89.66
         486	1	162	4	0.0	102.16	147.26	90.57001
         487	1	163	1	0.0	104.16	151.32	92.02
         488	1	163	3	0.0	103.96999	150.98	94.42
         489	1	163	4	0.0	103.56	152.57	91.27999
         490	1	164	1	0.0	105.17999	153.49	94.95
         491	1	164	3	0.0	105.54	155.32	93.549995
         492	1	164	4	0.0	106.450005	153.06	95.71001
         493	1	165	1	0.0	104.93	157.19	95.64
         494	1	165	3	0.0	105.560005	158.92	94.05001
         495	1	165	4	0.0	104.76	157.61	97.13
         496	1	166	1	0.0	108.27	158.64	94.50001
         497	1	166	3	0.0	108.48	159.07	92.09
         498	1	166	4	0.0	109.69	158.47	95.25
         499	1	167	1	0.0	107.94	156.44	91.31
         500	1	167	3	0.0	106.98	157.39	89.36001
         501	1	167	4	0.0	107.95	154.86	91.23
         502	1	168	1	0.0	104.4	157.72	90.62
         503	1	168	3	0.0	104.21999	159.79	89.38
         504	1	168	4	0.0	103.1	157.38	91.38
         505	1	169	1	0.0	105.6	161.29	90.99
         506	1	169	3	0.0	106.49	162.25	88.95
         507	1	169	4	0.0	106.17	161.94	92.31
         508	1	170	1	0.0	108.68	160.65	88.659996
         509	1	170	3	0.0	108.38	160.98	86.31999
         510	1	170	4	0.0	109.92	159.81	88.98999
         511	1	171	1	0.0	106.35	158.71	86.27
         512	1	171	3	0.0	105.25	159.84	84.46
         513	1	171	5	0.0	107.29	147.5610479	80.14440072
         514	1	172	1	0.0	103.73	161.49	86.380005
         515	1	172	3	0.0	104.23	163.27	84.72
         516	1	172	4	0.0	102.98	162.22	87.55
         517	1	173	1	0.0	106.54	164.19	85.78
         518	1	173	3	0.0	106.94001	164.65	83.51
         519	1	173	4	0.0	107.75	164.53	86.71
         520	1	174	1	0.0	107.96	162.21	82.8
         521	1	174	3	0.0	107.0	162.46	80.64
         522	1	174	4	0.0	108.69	160.84	82.93
         523	1	175	1	0.0	104.32	161.63	81.41
         524	1	175	3	0.0	103.46001	163.15	79.76
         525	1	175	4	0.0	103.16	161.07	82.24
         526	1	176	1	0.0	103.75	165.37	81.57
         527	1	176	3	0.0	104.27	166.67	79.62
         528	1	176	4	0.0	103.8	166.11	82.94
         529	1	177	1	0.0	107.05	165.82	79.94
         530	1	177	3	0.0	106.51999	165.94	77.59
         531	1	177	4	0.0	108.36	165.74	80.84
         532	1	178	1	0.0	107.89	163.6	76.95
         533	1	178	3	0.0	106.51999	163.82	75.01
         534	1	178	4	0.0	109.12	162.6	76.93
         535	1	179	1	0.0	104.33	162.44	75.87
         536	1	179	3	0.0	103.25	164.31	74.81
         537	1	179	4	0.0	103.63	161.29	76.73
         538	1	180	1	0.0	101.76	164.89	76.98
         539	1	180	3	0.0	100.94	167.1	76.42
         540	1	180	4	0.0	100.920006	164.6	78.27
         541	1	181	1	0.0	103.63	168.16	76.33
         542	1	181	3	0.0	103.7	168.41	73.94
         543	1	181	4	0.0	104.38	168.86	77.43
         544	1	182	1	0.0	106.53	167.47	73.93
         545	1	182	3	0.0	105.98	167.29	71.56
         546	1	182	4	0.0	107.87	167.01	74.52
         547	1	183	1	0.0	105.33	164.7	71.54
         548	1	183	3	0.0	103.88	165.25	69.75
         549	1	183	4	0.0	105.36001	163.15	71.73
         550	1	184	1	0.0	101.76	165.98	71.26
         551	1	184	3	0.0	101.39	167.44	69.33
         552	1	184	4	0.0	100.73999	166.29	72.37
         553	1	185	1	0.0	103.25	169.49	70.32
         554	1	185	3	0.0	103.56	169.6	68.03
         555	1	185	4	0.0	104.16	170.37	71.15
         556	1	186	1	0.0	105.619995	167.66	67.78
         557	1	186	3	0.0	104.69	167.35	65.55
         558	1	186	4	0.0	106.71	166.68	68.13
         559	1	187	1	0.0	102.54	165.89	66.25
         560	1	187	3	0.0	101.42999	167.28	64.51
         561	1	187	4	0.0	101.74999	164.86	67.17
         562	1	188	1	0.0	100.57	169.36	66.25
         563	1	188	3	0.0	100.95	170.43	64.14
         564	1	188	4	0.0	100.36	170.39	67.43
         565	1	189	1	0.0	103.81	170.93	64.76
         566	1	189	3	0.0	103.96999	170.93	62.42
         567	1	189	4	0.0	105.2	170.79	65.41
         568	1	190	1	0.0	103.78001	168.25	62.049995
         569	1	190	3	0.0	102.93	168.76	59.98
         570	1	190	4	0.0	103.84999	166.76	62.269997
         571	1	191	1	0.0	100.23	168.64	60.77
         572	1	191	3	0.0	99.86	170.29	59.15
         573	1	191	4	0.0	98.97	167.92	61.37
         574	1	192	1	0.0	100.72001	172.38998	60.61
         575	1	192	3	0.0	101.65	173.08	58.45
         576	1	192	4	0.0	101.1	173.17	61.84
         577	1	193	1	0.0	104.15001	171.95	58.87
         578	1	193	3	0.0	104.39	171.61	56.45
         579	1	193	4	0.0	105.37	171.43	59.62
         580	1	194	1	0.0	102.58	169.23	56.41
         581	1	194	3	0.0	101.04001	170.77	55.37
         582	1	194	4	0.0	101.48001	168.27	57.05
         583	1	195	1	0.0	101.869995	170.43	52.82
         584	1	195	3	0.0	102.29	168.36	51.6
         585	1	195	4	0.0	102.87	171.43	52.23
         586	1	196	1	0.0	100.13	168.67	49.9
         587	1	196	3	0.0	100.85	170.34	48.42
         588	1	196	4	0.0	98.57001	168.4	49.93
         589	1	197	1	0.0	101.42999	168.56	46.31
         590	1	197	3	0.0	103.270004	169.82	45.28
         591	1	197	4	0.0	100.36	169.27	45.43
         592	1	198	1	0.0	105.08	169.36	47.510002
         593	1	198	3	0.0	107.29	168.26	47.86
         594	1	198	4	0.0	105.09	170.51	48.5
         595	1	199	1	0.0	106.26	165.74	47.61
         596	1	199	3	0.0	106.41	165.73	45.099995
         597	1	199	4	0.0	105.51	164.41	47.78
         598	1	200	1	0.0	109.07	165.34	45.099995
         599	1	200	3	0.0	109.810005	163.51	43.790005
         600	1	200	4	0.0	110.51999	165.81	45.4
         601	1	201	1	0.0	107.93	161.62	44.489998
         602	1	201	3	0.0	107.27999	162.34	42.25
         603	1	201	4	0.0	106.82001	160.88	45.24
         604	1	202	1	0.0	109.04001	160.53	40.97
         605	1	202	3	0.0	106.93	159.38	40.52
         606	1	202	4	0.0	110.1	159.53	40.67
         607	1	203	1	0.0	106.76999	160.65	37.98
         608	1	203	3	0.0	108.45	161.78	36.69
         609	1	203	4	0.0	105.58	161.64	38.25
         610	1	204	1	0.0	107.590004	160.73	34.29
         611	1	204	3	0.0	106.42	162.83	34.17
         612	1	204	4	0.0	107.20999	159.54	33.4
         613	1	205	1	0.0	108.25	164.1	32.31
         614	1	205	3	0.0	108.71	164.65	34.67
         615	1	205	4	0.0	106.88	164.66	31.75
         616	1	206	1	0.0	109.9	167.23	34.02
         617	1	206	3	0.0	107.73	167.66	35.03
         618	1	206	5	0.0	109.44	157.23538288	32.06595083
         619	1	207	1	0.0	108.72001	168.96	37.19
         620	1	207	3	0.0	107.399994	167.2	38.02
         621	1	207	4	0.0	107.67	170.02	36.85
         622	1	208	1	0.0	108.96	166.81	40.33
         623	1	208	3	0.0	107.020004	165.57	41.23
         624	1	208	4	0.0	110.06	166.83	41.45
         625	1	209	1	0.0	105.71	167.92	42.17
         626	1	209	3	0.0	104.5	169.5	40.86
         627	1	209	4	0.0	105.77	168.95	43.34
         628	1	210	1	0.0	102.81	167.46	39.7
         629	1	210	3	0.0	101.25	166.66	41.42
         630	1	210	4	0.0	102.92	166.24	38.77
         631	1	211	1	0.0	99.32	168.59	40.72
         632	1	211	3	0.0	98.3	166.69	39.53
         633	1	211	4	0.0	98.56	169.8	40.15
         634	1	212	1	0.0	96.32	166.36	41.56
         635	1	212	3	0.0	93.94	166.66	41.18
         636	1	212	4	0.0	96.48	165.4	42.77
         637	1	213	1	0.0	93.80001	169.01	42.5
         638	1	213	3	0.0	92.26	170.4	41.48
         639	1	213	4	0.0	94.00001	169.85	43.76
         640	1	214	1	0.0	93.89	170.68	39.11
         641	1	214	3	0.0	95.51	169.12	38.54
         642	1	214	4	0.0	94.33	172.13998	39.11
         643	1	215	1	0.0	95.55	169.61	35.83
         644	1	215	3	0.0	97.02	171.5	35.94
         645	1	215	4	0.0	95.19	169.69	34.43
         646	1	216	1	0.0	99.35	170.02	36.1
         647	1	216	3	0.0	100.18	171.96	34.85
         648	1	216	4	0.0	100.28	168.79	36.36
         649	1	217	1	0.0	99.18	171.21	32.44
         650	1	217	3	0.0	96.81	171.42	32.17
         651	1	217	4	0.0	99.54	170.4	31.22
         652	1	218	1	0.0	98.91	174.22	32.24
         653	1	218	3	0.0	99.32	173.66	30.0