ITEM: TIMESTEP
0
ITEM: NUMBER OF ATOMS
8634
ITEM: BOX BOUNDS ss ss ss
34.9 176.46
33.25 177.69
-11.39 120.32
ITEM: ATOMS id type xs ys zs
1 1 0.390365 0.908474 0.866297
2 3 0.373552 0.906051 0.870777
3 4 0.392978 0.915259 0.857718
4 1 0.36889 0.896428 0.85301
5 3 0.371291 0.881335 0.861818
6 4 0.368819 0.892758 0.841774
7 1 0.352995 0.880296 0.869182
8 3 0.352289 0.869842 0.85506
9 4 0.342611 0.88355 0.872219
10 1 0.349816 0.854196 0.866601
11 3 0.341622 0.848103 0.852631
12 4 0.349604 0.847411 0.876091
13 1 0.324315 0.858765 0.85711
14 3 0.323114 0.861188 0.839268
15 4 0.315343 0.862227 0.863108
16 1 0.333993 0.877665 0.838812
17 3 0.340774 0.871296 0.822641
18 4 0.34035 0.886873 0.841394
19 1 0.352218 0.858973 0.830537
20 3 0.350028 0.847549 0.817554
21 4 0.361472 0.856826 0.835852
22 1 0.333781 0.839449 0.827348
23 3 0.326151 0.836818 0.811935
24 4 0.327494 0.835364 0.835776
25 1 0.319935 0.855649 0.810493
26 3 0.323891 0.854957 0.792726
27 4 0.315979 0.86465 0.814061
28 1 0.342823 0.859734 0.795004
29 3 0.346779 0.848795 0.782325
30 4 0.352218 0.864165 0.798497
31 1 0.345578 0.832803 0.793865
32 3 0.336465 0.824841 0.781262
33 4 0.34805 0.825948 0.802521
34 1 0.319441 0.831695 0.784982
35 3 0.31824 0.831487 0.766608
36 4 0.311105 0.83578 0.791436
37 1 0.324456 0.849418 0.764483
38 3 0.331167 0.844295 0.74945
39 4 0.326363 0.859388 0.766988
40 1 0.34798 0.837787 0.757649
41 3 0.346708 0.826849 0.743907
42 4 0.357587 0.835641 0.763268
43 1 0.333074 0.816464 0.753701
44 3 0.324527 0.813902 0.738289
45 4 0.328765 0.811271 0.76266
46 1 0.315202 0.830795 0.738137
47 3 0.318028 0.831695 0.719763
48 4 0.308138 0.837718 0.742313
49 1 0.336748 0.83848 0.720826
50 3 0.339149 0.829895 0.705489
51 4 0.34579 0.84298 0.725382
52 1 0.342116 0.813002 0.714676
53 3 0.335547 0.806909 0.699871
54 4 0.345154 0.805386 0.721737
55 1 0.316544 0.810925 0.705186
56 3 0.316191 0.813071 0.687419
57 4 0.307502 0.811479 0.711867
58 1 0.320641 0.832318 0.688406
59 3 0.326787 0.828718 0.671399
60 4 0.323114 0.842495 0.691595
61 1 0.344448 0.824356 0.678992
62 3 0.345437 0.814664 0.664035
63 4 0.353066 0.822764 0.685825
64 1 0.337878 0.799225 0.673829
65 3 0.329118 0.795555 0.658796
66 4 0.334487 0.792232 0.682636
67 1 0.31499 0.807463 0.660922
68 3 0.314213 0.807256 0.642928
69 4 0.307008 0.81314 0.666085
70 1 0.329048 0.821102 0.641713
71 3 0.333993 0.813764 0.625997
72 5 0.324597 0.762298 0.601913
73 1 0.34586 0.800955 0.637006
74 3 0.3436 0.789047 0.624782
75 4 0.35243 0.796663 0.645357
76 1 0.325869 0.784409 0.630324
77 3 0.322549 0.784409 0.612634
78 4 0.317039 0.781847 0.636778
79 1 0.317886 0.80324 0.610812
80 3 0.324527 0.805109 0.59426
81 4 0.314354 0.813348 0.613545
82 1 0.343529 0.803932 0.60041
83 3 0.346072 0.79694 0.583783
84 4 0.352995 0.804971 0.606484
85 1 0.343105 0.778524 0.591223
86 3 0.333216 0.770908 0.579227
87 4 0.34805 0.770631 0.597829
88 1 0.316756 0.77347 0.588642
89 3 0.301498 0.778247 0.583023
90 4 0.311811 0.768347 0.597525
91 1 0.307502 0.795348 0.575279
92 3 0.321772 0.800194 0.568218
93 4 0.302345 0.801925 0.582947
94 1 0.313224 0.807879 0.550072
95 3 0.319794 0.821448 0.558272
96 4 0.305171 0.811756 0.542783
97 1 0.337101 0.82041 0.547567
98 3 0.333922 0.825602 0.529876
99 4 0.346708 0.815356 0.548022
100 1 0.338514 0.843464 0.532989
101 3 0.341481 0.843257 0.514767
102 4 0.342046 0.852257 0.53762
103 1 0.360201 0.837649 0.517728
104 3 0.358788 0.820964 0.519171
105 4 0.370444 0.839795 0.521828
106 1 0.35794 0.818056 0.497988
107 3 0.361613 0.802963 0.502619
108 4 0.359494 0.819233 0.485992
109 1 0.381322 0.805456 0.505049
110 3 0.380616 0.79334 0.517501
111 4 0.391636 0.808848 0.504214
112 1 0.373552 0.804763 0.533445
113 3 0.362179 0.794032 0.538608
114 4 0.373269 0.813487 0.540658
115 1 0.34805 0.798809 0.524486
116 3 0.343317 0.782609 0.524637
117 4 0.341198 0.805179 0.517728
118 1 0.357446 0.777693 0.510516
119 3 0.368183 0.765924 0.513021
120 4 0.360907 0.778385 0.499279
121 1 0.373199 0.772431 0.533293
122 3 0.38874 0.766131 0.535267
123 4 0.36896 0.763847 0.537924
124 1 0.395733 0.772155 0.517273
125 3 0.411557 0.775408 0.523726
126 4 0.396581 0.772501 0.505732
127 1 0.405764 0.790224 0.53595
128 3 0.392978 0.791955 0.546807
129 4 0.405835 0.800609 0.532913
130 1 0.401667 0.781224 0.562068
131 3 0.4064 0.780324 0.579759
132 4 0.401879 0.770701 0.560094
133 1 0.420034 0.794863 0.579303
134 3 0.414241 0.794932 0.596538
135 4 0.426815 0.802617 0.575051
136 1 0.400396 0.809748 0.593045
137 3 0.389376 0.804486 0.605421
138 4 0.395592 0.817779 0.587351
139 1 0.383371 0.789532 0.593425
140 3 0.384219 0.781086 0.608838
141 4 0.379486 0.784201 0.58401
142 1 0.402868 0.774855 0.604814
143 3 0.403786 0.775478 0.623415
144 4 0.412122 0.771601 0.599651
145 1 0.407107 0.794309 0.624098
146 3 0.398418 0.792855 0.639207
147 4 0.410144 0.804832 0.6222
148 1 0.380475 0.793617 0.630096
149 3 0.37553 0.782816 0.643991
150 4 0.37221 0.795763 0.622732
151 1 0.381393 0.767654 0.634348
152 3 0.38549 0.761354 0.651127
153 4 0.383654 0.760731 0.625617
154 1 0.403716 0.76897 0.651963
155 3 0.39863 0.770562 0.669046
156 4 0.413818 0.772224 0.648622
157 1 0.391495 0.788701 0.666312
158 3 0.382382 0.783509 0.68051
159 4 0.388528 0.797632 0.660162
160 1 0.368678 0.774301 0.668514
161 3 0.36677 0.76357 0.682256
162 4 0.362108 0.773678 0.659935
163 1 0.381322 0.751662 0.675499
164 3 0.38436 0.750277 0.693114
165 4 0.387398 0.746123 0.667907
166 1 0.394956 0.766408 0.695391
167 3 0.386762 0.768001 0.711791
168 4 0.402515 0.773678 0.692962
169 1 0.371856 0.77707 0.704654
170 3 0.361896 0.770701 0.717334
171 5 0.379768 0.720558 0.668397
172 1 0.35907 0.753669 0.707995
173 3 0.358858 0.746538 0.724926
174 4 0.357728 0.745708 0.700251
175 1 0.379062 0.746885 0.726217
176 3 0.380192 0.751662 0.743755
177 4 0.388952 0.745984 0.722648
178 1 0.378073 0.770493 0.739276
179 3 0.367406 0.771601 0.753549
180 4 0.381534 0.77977 0.734948
181 1 0.350664 0.769385 0.740642
182 3 0.343741 0.770562 0.756662
183 4 0.344024 0.765439 0.732063
184 1 0.345507 0.752977 0.762964
185 3 0.345437 0.757962 0.779364
186 4 0.346708 0.742592 0.761825
187 1 0.365499 0.763847 0.779288
188 3 0.361684 0.777901 0.78764
189 4 0.376166 0.763362 0.776479
190 1 0.356457 0.787801 0.771468
191 3 0.344942 0.794517 0.782401
192 4 0.355891 0.792371 0.760762
193 1 0.331591 0.781016 0.780427
194 3 0.327494 0.780878 0.798725
195 4 0.324809 0.774855 0.774732
196 1 0.341481 0.768416 0.80366
197 3 0.34586 0.776585 0.819224
198 4 0.34798 0.760385 0.802976
199 1 0.355468 0.790917 0.810417
200 3 0.349251 0.798048 0.825146
201 4 0.36119 0.797009 0.80366
202 1 0.33258 0.803309 0.816339
203 3 0.327352 0.802479 0.833422
204 4 0.324597 0.805386 0.808974
205 1 0.323185 0.783093 0.832663
206 3 0.327564 0.78427 0.850733
207 4 0.321701 0.773055 0.828031
208 1 0.346284 0.779562 0.846557
209 3 0.351017 0.789532 0.860603
210 4 0.35462 0.774024 0.842229
211 1 0.346779 0.805802 0.849214
212 3 0.358081 0.817502 0.853466
213 5 0.346567 0.746668 0.803194
214 1 0.373976 0.806633 0.848531
215 3 0.377296 0.795071 0.836307
216 4 0.377578 0.803725 0.859236
217 1 0.392342 0.803863 0.827576
218 3 0.400466 0.792717 0.837598
219 4 0.398347 0.81231 0.823476
220 1 0.403363 0.781016 0.820211
221 3 0.404069 0.766062 0.827728
222 4 0.407813 0.780186 0.809354
223 1 0.385773 0.760454 0.825222
224 3 0.380969 0.747992 0.814896
225 4 0.375318 0.763916 0.824767
226 1 0.39983 0.743215 0.809126
227 3 0.41516 0.744808 0.815883
228 4 0.401526 0.747577 0.798421
229 1 0.417985 0.72653 0.820591
230 3 0.427734 0.731446 0.805937
231 4 0.417632 0.716214 0.820059
232 1 0.444052 0.735461 0.817781
233 3 0.452812 0.737953 0.802445
234 4 0.450904 0.736569 0.826892
235 1 0.456626 0.719399 0.799484
236 3 0.454366 0.723207 0.782097
237 4 0.459593 0.709014 0.802065
238 1 0.435434 0.722238 0.782629
239 3 0.435434 0.735253 0.771164
240 4 0.424484 0.719676 0.784906
241 1 0.43388 0.748477 0.786577
242 3 0.441297 0.758308 0.773594
243 4 0.43169 0.752423 0.79713
244 1 0.460158 0.753115 0.778984
245 3 0.464044 0.756092 0.761977
246 4 0.468635 0.748338 0.784223
247 1 0.457968 0.739546 0.754309
248 3 0.45154 0.748823 0.740035
249 4 0.455355 0.729369 0.754233
250 1 0.432891 0.749862 0.749525
251 3 0.428935 0.7635 0.739276
252 4 0.424626 0.747438 0.75727
253 1 0.439884 0.775547 0.751955
254 3 0.448079 0.783786 0.738289
255 4 0.442003 0.780462 0.762205
256 1 0.462348 0.770978 0.73677
257 3 0.462984 0.775547 0.719459
258 4 0.470543 0.763847 0.739731
259 1 0.447584 0.765508 0.713461
260 3 0.443204 0.777278 0.700858
261 4 0.440449 0.757408 0.714145
262 1 0.434233 0.789324 0.715587
263 3 0.442145 0.801509 0.706856
264 4 0.427522 0.791886 0.724774
265 1 0.457686 0.802894 0.721206
266 3 0.467222 0.807533 0.7064
267 4 0.463902 0.801579 0.730924
268 1 0.468565 0.789601 0.698201
269 3 0.467505 0.798463 0.683471
270 4 0.468565 0.779216 0.69691
271 1 0.446807 0.799155 0.683471
272 3 0.448149 0.813833 0.674512
273 4 0.437058 0.795278 0.683319
274 1 0.451611 0.824979 0.691064
275 3 0.463337 0.831972 0.680434
276 4 0.449703 0.83031 0.701162
277 1 0.478172 0.823041 0.688103
278 3 0.484388 0.826433 0.671475
279 4 0.484459 0.816533 0.693797
280 1 0.47471 0.81231 0.661377
281 3 0.471885 0.821587 0.646648
282 4 0.470896 0.802271 0.65872
283 1 0.456626 0.831141 0.653102
284 3 0.463408 0.844295 0.645054
285 4 0.44709 0.832872 0.657809
286 1 0.474428 0.850111 0.661529
287 3 0.486154 0.855234 0.648774
288 4 0.477324 0.851357 0.67231
289 1 0.494278 0.838272 0.645965
290 3 0.494984 0.840903 0.627819
291 4 0.498517 0.828441 0.648015
292 1 0.475629 0.835433 0.623263
293 3 0.475134 0.848034 0.611571
294 4 0.465951 0.830518 0.623643
295 1 0.470825 0.861327 0.626604
296 3 0.480927 0.871227 0.61643
297 4 0.46588 0.866242 0.635335
298 1 0.497104 0.867073 0.625085
299 3 0.504521 0.868942 0.608762
300 4 0.504945 0.864996 0.633437
301 1 0.501837 0.850872 0.603295
302 3 0.501907 0.855788 0.586288
303 4 0.499506 0.840764 0.603675
304 1 0.482198 0.860911 0.585073
305 3 0.484741 0.873788 0.574899
306 4 0.471461 0.859111 0.586136
307 1 0.49117 0.884312 0.590768
308 3 0.502119 0.890058 0.57786
309 4 0.492936 0.888743 0.601245
310 1 0.515753 0.877389 0.581277
311 3 0.519568 0.878081 0.562751
312 4 0.522393 0.87095 0.586744
313 1 0.506146 0.86458 0.557361
314 3 0.505086 0.874273 0.542024
315 4 0.49894 0.856203 0.558728
316 1 0.492371 0.886666 0.550072
317 3 0.5 0.897951 0.540885
318 4 0.482905 0.890543 0.554552
319 1 0.513634 0.903282 0.556374
320 3 0.5231 0.906051 0.5421
321 4 0.51766 0.904805 0.567307
322 1 0.530305 0.887497 0.539746
323 3 0.531082 0.890681 0.52236
324 4 0.534685 0.878219 0.542404
325 1 0.511656 0.886181 0.518412
326 3 0.510526 0.894904 0.502771
327 4 0.501413 0.883412 0.520917
328 1 0.512927 0.911936 0.51211
329 3 0.523806 0.924398 0.507782
330 4 0.505651 0.918305 0.516741
331 1 0.539842 0.915397 0.514236
332 3 0.538076 0.908336 0.497684
333 4 0.546906 0.910828 0.521145
334 1 0.55616 0.916921 0.490471
335 3 0.549873 0.908543 0.476501
336 4 0.562164 0.908474 0.491459
337 1 0.540124 0.922321 0.466479
338 3 0.525784 0.915951 0.460102
339 4 0.5385 0.932567 0.463518
340 1 0.519356 0.90889 0.479007
341 3 0.516601 0.899612 0.464278
342 4 0.511585 0.915951 0.47802
343 1 0.51434 0.883066 0.475666
344 3 0.498022 0.886873 0.475059
345 4 0.517307 0.874896 0.482499
346 1 0.493784 0.874481 0.458963
347 3 0.504662 0.864857 0.450156
348 4 0.489757 0.882096 0.451294
349 1 0.490393 0.852465 0.444841
350 3 0.473298 0.850665 0.445676
351 4 0.495832 0.844711 0.451826
352 1 0.472874 0.838133 0.42996
353 3 0.463478 0.824356 0.434971
354 4 0.473792 0.835503 0.418495
355 1 0.478242 0.818471 0.449017
356 3 0.482481 0.827333 0.463139
357 4 0.487567 0.813348 0.446739
358 1 0.469624 0.817848 0.476729
359 3 0.467999 0.801855 0.479159
360 4 0.458816 0.819648 0.479159
361 1 0.483117 0.798671 0.491686
362 3 0.478808 0.801717 0.50839
363 4 0.493854 0.798325 0.49442
364 1 0.466728 0.785863 0.508921
365 3 0.472944 0.781363 0.524486
366 4 0.457545 0.780255 0.506112
367 1 0.486084 0.769939 0.517728
368 3 0.493995 0.773816 0.532382
369 4 0.490887 0.76177 0.51249
370 1 0.500989 0.790917 0.526004
371 3 0.497528 0.798117 0.542252
372 4 0.506358 0.798186 0.519323
373 1 0.478525 0.80144 0.538228
374 3 0.475841 0.79784 0.555615
375 4 0.469695 0.804763 0.53261
376 1 0.473721 0.77887 0.553413
377 3 0.48128 0.777693 0.570192
378 4 0.472026 0.769178 0.548478
379 1 0.500283 0.778524 0.559942
380 3 0.504662 0.78337 0.576873
381 4 0.507559 0.779009 0.551287
382 1 0.499435 0.801648 0.572698
383 3 0.497457 0.801786 0.590844
384 4 0.499011 0.811063 0.567383
385 1 0.478878 0.793201 0.59054
386 3 0.484318 0.787386 0.607015
387 4 0.469059 0.789186 0.587807
388 1 0.491806 0.770839 0.597677
389 3 0.503179 0.77077 0.611267
390 4 0.492795 0.762531 0.589857
391 1 0.515753 0.783232 0.602688
392 3 0.51759 0.787178 0.620378
393 4 0.521263 0.78877 0.59426
394 1 0.502543 0.800471 0.620302
395 3 0.501272 0.795555 0.638068
396 4 0.495832 0.807602 0.616506
397 1 0.489263 0.781155 0.634044
398 3 0.498163 0.775685 0.648774
399 4 0.482269 0.77437 0.628122
400 1 0.51208 0.766824 0.638372
401 3 0.522676 0.769801 0.65219
402 4 0.51759 0.762323 0.630096
403 1 0.526702 0.787524 0.648622
404 3 0.525572 0.791055 0.666464
405 4 0.530517 0.795901 0.643231
406 1 0.505439 0.793755 0.665553
407 3 0.504733 0.787455 0.682256
408 4 0.495762 0.796455 0.661301
409 1 0.507488 0.769662 0.676714
410 3 0.518508 0.770562 0.690229
411 4 0.506146 0.760177 0.672083
412 1 0.534544 0.775478 0.678081
413 3 0.537864 0.779009 0.695315
414 5 0.524795 0.709476 0.63755
415 1 0.532636 0.798255 0.693341
416 3 0.529952 0.798671 0.711108
417 4 0.531153 0.80774 0.689014
418 1 0.51215 0.789809 0.710273
419 3 0.513704 0.78247 0.726748
420 4 0.501907 0.788424 0.706325
421 1 0.523453 0.766824 0.719004
422 3 0.528327 0.763293 0.735707
423 4 0.527268 0.760108 0.711563
424 1 0.541325 0.776447 0.738061
425 3 0.537511 0.777001 0.755903
426 4 0.547612 0.784409 0.734872
427 1 0.521828 0.788009 0.753625
428 3 0.519003 0.780601 0.769645
429 4 0.514128 0.794586 0.749753
430 1 0.512009 0.764954 0.764103
431 3 0.52197 0.757131 0.776403
432 4 0.505793 0.758654 0.757877
433 1 0.537157 0.754292 0.762888
434 3 0.546341 0.753946 0.777921
435 4 0.542879 0.753669 0.753322
436 1 0.545776 0.773885 0.781034
437 3 0.545422 0.769939 0.799104
438 4 0.545988 0.784547 0.778149
439 1 0.525996 0.767585 0.798876
440 3 0.524866 0.755539 0.81148
441 5 0.531577 0.707891 0.759729
442 1 0.532566 0.741623 0.79751
443 3 0.544716 0.735876 0.808822
444 4 0.533343 0.735669 0.788171
445 1 0.558138 0.749585 0.803052
446 3 0.565979 0.751038 0.817781
447 4 0.563365 0.755954 0.795308
448 1 0.552275 0.761631 0.827196
449 3 0.535533 0.76537 0.825905
450 4 0.558774 0.770631 0.828639
451 1 0.531365 0.756716 0.844127
452 3 0.520345 0.766408 0.854225
453 4 0.531153 0.747785 0.851036
454 1 0.531859 0.782332 0.852934
455 3 0.52536 0.796178 0.846329
456 4 0.540054 0.787178 0.859236
457 1 0.528963 0.79154 0.825905
458 3 0.518437 0.780878 0.81763
459 4 0.538429 0.790432 0.819604
460 1 0.507629 0.796248 0.808746
461 3 0.491735 0.799225 0.814669
462 4 0.50989 0.790709 0.798649
463 1 0.489969 0.780462 0.823096
464 3 0.485024 0.777001 0.840179
465 4 0.489969 0.769801 0.820894
466 1 0.495762 0.791955 0.848759
467 3 0.480644 0.798809 0.846557
468 4 0.503038 0.799432 0.851644
469 1 0.474781 0.793963 0.867284
470 3 0.458604 0.794655 0.862577
471 4 0.47351 0.803932 0.870777
472 1 0.45924 0.776724 0.852479
473 3 0.447443 0.781501 0.840407
474 5 0.466516 0.705227 0.804103
475 1 0.459381 0.791955 0.828791
476 3 0.46581 0.780809 0.816263
477 4 0.46694 0.799571 0.827196
478 1 0.449774 0.783024 0.803887
479 3 0.445889 0.790086 0.787791
480 4 0.440732 0.77617 0.80495
481 1 0.452035 0.807325 0.792499
482 3 0.455708 0.810302 0.77534
483 4 0.456485 0.815287 0.79956
484 1 0.472238 0.799709 0.774656
485 3 0.484459 0.808086 0.767216
486 4 0.475134 0.789324 0.774125
487 1 0.489263 0.817433 0.785134
488 3 0.48792 0.815079 0.803356
489 4 0.485024 0.826087 0.779516
490 1 0.496468 0.832456 0.80738
491 3 0.499011 0.845126 0.79675
492 4 0.505439 0.829479 0.81315
493 1 0.494702 0.858073 0.812619
494 3 0.499152 0.87005 0.800547
495 4 0.493501 0.86098 0.823931
496 1 0.518296 0.868111 0.803963
497 3 0.51978 0.871088 0.785665
498 4 0.528327 0.866934 0.809658
499 1 0.515965 0.85288 0.779743
500 3 0.509183 0.859457 0.764938
501 4 0.516036 0.841941 0.779136
502 1 0.490958 0.861742 0.774505
503 3 0.489686 0.876073 0.76509
504 4 0.481775 0.859388 0.780275
505 1 0.499435 0.886458 0.777314
506 3 0.505722 0.893104 0.761825
507 4 0.503461 0.890958 0.787336
508 1 0.521192 0.882027 0.759623
509 3 0.519073 0.884312 0.741857
510 4 0.529952 0.876212 0.762129
511 1 0.504733 0.868596 0.741477
512 3 0.496962 0.876419 0.727735
513 5 0.511373 0.791409 0.694969
514 1 0.486225 0.887843 0.742313
515 3 0.489757 0.900166 0.729709
516 4 0.480927 0.892897 0.751196
517 1 0.506075 0.906536 0.737757
518 3 0.508901 0.90972 0.720522
519 4 0.514623 0.90889 0.744818
520 1 0.516106 0.892827 0.715132
521 3 0.509325 0.894558 0.698732
522 4 0.521263 0.883343 0.716119
523 1 0.490393 0.888812 0.704578
524 3 0.484318 0.899335 0.692051
525 4 0.482198 0.884935 0.71088
526 1 0.486366 0.914705 0.705793
527 3 0.49004 0.923705 0.690988
528 4 0.486719 0.919828 0.716195
529 1 0.509678 0.917821 0.693417
530 3 0.505934 0.918651 0.675575
531 4 0.518932 0.917267 0.700251
532 1 0.515612 0.902451 0.670716
533 3 0.505934 0.903974 0.655987
534 4 0.524301 0.895528 0.670564
535 1 0.490463 0.89442 0.662516
536 3 0.482834 0.907366 0.654468
537 4 0.485519 0.886458 0.669046
538 1 0.472309 0.911382 0.670944
539 3 0.466516 0.926682 0.666692
540 4 0.466375 0.909374 0.680738
541 1 0.485519 0.934021 0.666009
542 3 0.486013 0.935752 0.647863
543 4 0.490817 0.938867 0.67436
544 1 0.506005 0.929244 0.647787
545 3 0.502119 0.927998 0.629793
546 4 0.51547 0.926059 0.652266
547 1 0.497528 0.910066 0.629641
548 3 0.487285 0.913874 0.61605
549 4 0.49774 0.899335 0.631083
550 1 0.472309 0.918928 0.627515
551 3 0.469695 0.929036 0.612862
552 4 0.465103 0.921074 0.635943
553 1 0.482834 0.943229 0.620378
554 3 0.485024 0.943991 0.602991
555 4 0.489263 0.949322 0.62668
556 1 0.499576 0.930559 0.601093
557 3 0.493006 0.928413 0.584162
558 4 0.507276 0.923775 0.603751
559 1 0.477819 0.918305 0.589477
560 3 0.469977 0.927929 0.576266
561 4 0.472238 0.911174 0.596462
562 1 0.463902 0.942329 0.589477
563 3 0.466587 0.949737 0.573457
564 4 0.462419 0.94946 0.598436
565 1 0.48679 0.953199 0.578164
566 3 0.48792 0.953199 0.560398
567 4 0.496609 0.952229 0.583099
568 1 0.486578 0.934644 0.557589
569 3 0.480574 0.938175 0.541872
570 4 0.487073 0.924328 0.559259
571 1 0.4615 0.937344 0.54787
572 3 0.458887 0.948768 0.535571
573 4 0.4526 0.932359 0.552426
574 1 0.464962 0.963306 0.546656
575 3 0.471532 0.968084 0.530256
576 4 0.467646 0.968707 0.555994
577 1 0.489192 0.96026 0.533445
578 3 0.490887 0.957906 0.515071
579 4 0.49781 0.95666 0.539139
580 1 0.478101 0.941429 0.514767
581 3 0.467222 0.952091 0.506871
582 4 0.470331 0.934783 0.519626
583 1 0.473086 0.949737 0.48751
584 3 0.476053 0.935406 0.478248
585 4 0.48015 0.95666 0.483031
586 1 0.460794 0.937552 0.465341
587 3 0.46588 0.949114 0.454104
588 4 0.449774 0.935683 0.465568
589 1 0.469977 0.93679 0.438084
590 3 0.482975 0.945514 0.430263
591 4 0.462419 0.941706 0.431402
592 1 0.495762 0.942329 0.447195
593 3 0.511373 0.934713 0.449852
594 4 0.495832 0.950291 0.454711
595 1 0.504097 0.917267 0.447954
596 3 0.505157 0.917197 0.428897
597 4 0.498799 0.908059 0.449245
598 1 0.523947 0.914497 0.428897
599 3 0.529175 0.901828 0.418951
600 4 0.53419 0.917751 0.431175
601 1 0.515894 0.888743 0.424265
602 3 0.511303 0.893727 0.407258
603 4 0.508053 0.883619 0.42996
604 1 0.523736 0.881196 0.39754
605 3 0.50883 0.873235 0.394123
606 4 0.531224 0.874273 0.395262
607 1 0.5077 0.882027 0.374839
608 3 0.519568 0.88985 0.365044
609 4 0.499294 0.888881 0.376889
610 1 0.513493 0.882581 0.346823
611 3 0.505227 0.89712 0.345911
612 4 0.510808 0.874342 0.340065
613 1 0.518155 0.905912 0.33179
614 3 0.521404 0.90972 0.349708
615 4 0.508477 0.90979 0.327538
616 1 0.529811 0.927582 0.344773
617 3 0.514481 0.930559 0.352441
618 5 0.526561 0.858387 0.329937
619 1 0.521475 0.93956 0.368841
620 3 0.51215 0.927375 0.375142
621 4 0.514058 0.946898 0.366259
622 1 0.52317 0.924675 0.392681
623 3 0.509466 0.91609 0.399514
624 4 0.530941 0.924813 0.401184
625 1 0.500212 0.932359 0.406651
626 3 0.491664 0.943298 0.396705
627 4 0.500636 0.93949 0.415534
628 1 0.479726 0.929175 0.387898
629 3 0.468706 0.923636 0.400957
630 4 0.480503 0.920728 0.380837
631 1 0.455072 0.936998 0.395642
632 3 0.447867 0.923844 0.386607
633 4 0.449703 0.945375 0.391314
634 1 0.43388 0.921559 0.40202
635 3 0.417067 0.923636 0.399134
636 4 0.43501 0.914913 0.411206
637 1 0.416078 0.939906 0.409156
638 3 0.405199 0.949529 0.401412
639 4 0.417491 0.945721 0.418723
640 1 0.416714 0.951468 0.383418
641 3 0.428158 0.940667 0.37909
642 4 0.419822 0.961576 0.383418
643 1 0.42844 0.94406 0.358515
644 3 0.438825 0.957145 0.35935
645 4 0.425897 0.944614 0.347886
646 1 0.455284 0.946898 0.360565
647 3 0.461147 0.96033 0.351074
648 4 0.461854 0.938383 0.362539
649 1 0.454083 0.955137 0.332777
650 3 0.437341 0.956591 0.330727
651 4 0.456626 0.949529 0.323514
652 1 0.452176 0.975976 0.331258
653 3 0.455072 0.972099 0.314251
654 4 0.446666 0.984838 0.333764
655 1 0.471037 0.981999 0.311138
656 3 0.485872 0.977638 0.318806
657 4 0.474357 0.991969 0.307873
658 1 0.489545 0.964137 0.304077
659 3 0.50106 0.974868 0.297092
660 4 0.487285 0.956245 0.296105
661 1 0.516954 0.967322 0.305368
662 3 0.52529 0.969676 0.289576
663 4 0.523241 0.962545 0.313871
664 1 0.518508 0.954306 0.280617
665 3 0.519497 0.963583 0.265356
666 4 0.515541 0.944198 0.277428
667 1 0.501413 0.970438 0.26733
668 3 0.508194 0.98373 0.260193
669 4 0.489898 0.971476 0.268696
670 1 0.513281 0.9919 0.27887
671 3 0.524089 0.999723 0.268696
672 4 0.515188 0.992592 0.290259
673 1 0.538217 0.986223 0.269228
674 3 0.545776 0.980823 0.253815
675 4 0.545988 0.981307 0.276441
676 1 0.529457 0.97563 0.244249
677 3 0.534756 0.963306 0.233695
678 4 0.532707 0.981792 0.23529
679 1 0.534968 0.950014 0.248728
680 3 0.518649 0.945583 0.249488
681 4 0.541113 0.94496 0.257308
682 1 0.519356 0.93229 0.233316
683 3 0.519285 0.921282 0.246451
684 4 0.522888 0.926959 0.223825
685 1 0.499435 0.920105 0.247286
686 3 0.495267 0.90979 0.234075
687 4 0.490393 0.92509 0.251006
688 1 0.495691 0.894004 0.244704
689 3 0.4846 0.892343 0.258902
690 4 0.505298 0.888258 0.244325
691 1 0.478454 0.874896 0.253284
692 3 0.490675 0.871365 0.265583
693 4 0.476688 0.865827 0.247589
694 1 0.466304 0.87275 0.272493
695 3 0.467364 0.888189 0.278263
696 4 0.462066 0.867419 0.281224
697 1 0.455425 0.895458 0.26285
698 3 0.440449 0.891997 0.270822
699 4 0.451964 0.897951 0.251689
700 1 0.441368 0.906743 0.284868
701 3 0.436352 0.919274 0.274315
702 4 0.446171 0.910759 0.294663
703 1 0.416996 0.91879 0.283274
704 3 0.42074 0.923498 0.300357
705 4 0.407248 0.914013 0.281148
706 1 0.407389 0.938798 0.299901
707 3 0.3987 0.926682 0.305064
708 4 0.400537 0.945998 0.295194
709 1 0.398418 0.930629 0.326019
710 3 0.384925 0.939906 0.322299
711 5 0.402939 0.849995 0.31729
712 1 0.374611 0.929313 0.338395
713 3 0.365499 0.938452 0.350847
714 4 0.370867 0.919621 0.341508
715 1 0.382877 0.948145 0.357528
716 3 0.377437 0.96123 0.347126
717 4 0.393755 0.949875 0.35973
718 1 0.36889 0.970576 0.364209
719 3 0.369101 0.968291 0.382279
720 4 0.358858 0.971545 0.35973
721 1 0.367123 0.987607 0.386151
722 3 0.383371 0.987953 0.388353
723 5 0.368183 0.914444 0.372476
724 1 0.383795 0.99003 0.409232
725 3 0.383018 0.974107 0.413105
726 4 0.381393 0.995292 0.418951
727 1 0.400466 0.971753 0.419103
728 3 0.399619 0.973207 0.437173
729 4 0.411204 0.971822 0.418951
730 1 0.390859 0.955414 0.440058
731 3 0.401526 0.944475 0.433225
732 4 0.380687 0.951745 0.440589
733 1 0.409014 0.93949 0.452357
734 3 0.400325 0.925782 0.456989
735 4 0.414877 0.941637 0.462379
736 1 0.410144 0.914151 0.443247
737 3 0.42399 0.908405 0.451978
738 4 0.413182 0.911867 0.432313
739 1 0.415089 0.896012 0.46405
740 3 0.400749 0.887635 0.462455
741 4 0.416431 0.901274 0.474376
742 1 0.407672 0.871088 0.472781
743 3 0.4064 0.861257 0.486979
744 4 0.407389 0.863473 0.464657
745 1 0.423425 0.866519 0.496394
746 3 0.42286 0.872819 0.513097
747 4 0.434445 0.864719 0.495938
748 1 0.409014 0.886043 0.508466
749 3 0.41191 0.897881 0.520917
750 4 0.403998 0.880642 0.516665
751 1 0.427027 0.905912 0.510288
752 3 0.423707 0.920313 0.51826
753 4 0.433738 0.906951 0.501708
754 1 0.410285 0.92599 0.506112
755 3 0.399336 0.93139 0.518412
756 4 0.406118 0.929867 0.49609
757 1 0.392554 0.914636 0.52365
758 3 0.393543 0.921698 0.539822
759 4 0.389164 0.904528 0.524182
760 1 0.412193 0.917474 0.543087
761 3 0.412899 0.932013 0.551818
762 4 0.422224 0.912351 0.542783
763 1 0.416361 0.943091 0.534963
764 3 0.407036 0.955968 0.541569
765 4 0.419751 0.946275 0.524258
766 1 0.390082 0.946829 0.538152
767 3 0.382594 0.952506 0.552578
768 4 0.382029 0.94136 0.533141
769 1 0.389376 0.938521 0.565788
770 3 0.396581 0.942329 0.581201
771 4 0.385914 0.928829 0.569357
772 1 0.413959 0.948629 0.572774
773 3 0.416784 0.955206 0.589477
774 4 0.421376 0.951883 0.564801
775 1 0.405764 0.971476 0.586516
776 3 0.398559 0.972237 0.602612
777 5 0.407036 0.904245 0.556252
778 1 0.384572 0.958183 0.598132
779 3 0.38768 0.952506 0.614684
780 4 0.377861 0.952368 0.592134
781 1 0.402444 0.94136 0.610204
782 3 0.410356 0.946206 0.624934
783 4 0.408025 0.933398 0.604965
784 1 0.418339 0.962407 0.617265
785 3 0.417279 0.968776 0.63412
786 4 0.423425 0.968845 0.610052
787 1 0.398771 0.974592 0.632754
788 3 0.399053 0.970645 0.650672
789 4 0.388528 0.976669 0.628654
790 1 0.394815 0.951191 0.646952
791 3 0.40527 0.948145 0.661985
792 4 0.39093 0.942537 0.641865
793 1 0.421517 0.948421 0.650976
794 3 0.427593 0.953475 0.667375
795 4 0.429217 0.947868 0.641789
796 1 0.424696 0.971753 0.664414
797 3 0.422012 0.973345 0.682181
798 4 0.424414 0.980823 0.658948
799 1 0.402162 0.96933 0.679979
800 3 0.40527 0.963999 0.696986
801 4 0.391848 0.968637 0.676031
802 1 0.411274 0.946483 0.691291
803 3 0.424343 0.943852 0.703515
804 4 0.410003 0.936929 0.68628
805 1 0.437341 0.953199 0.69281
806 3 0.443275 0.957976 0.708374
807 4 0.443416 0.956522 0.683623
808 1 0.432961 0.974315 0.70921
809 3 0.438471 0.973899 0.725913
810 4 0.426886 0.983038 0.706476
811 1 0.425332 0.962476 0.734568
812 3 0.435434 0.952783 0.74459
813 4 0.414524 0.959153 0.736087
814 1 0.44165 0.942191 0.727507
815 3 0.456697 0.94046 0.736163
816 4 0.442074 0.93776 0.716802
817 1 0.463761 0.956799 0.728646
818 3 0.470825 0.957976 0.74535
819 4 0.465174 0.965384 0.720902
820 1 0.456485 0.967114 0.754916
821 3 0.4615 0.958806 0.769721
822 4 0.447937 0.97383 0.756738
823 1 0.449915 0.944198 0.766533
824 3 0.463337 0.93776 0.775188
825 4 0.442074 0.937206 0.764103
826 1 0.475276 0.936583 0.758029
827 3 0.48792 0.939837 0.770025
828 4 0.478313 0.934713 0.747248
829 1 0.487779 0.958529 0.768431
830 3 0.493148 0.958322 0.786045
831 4 0.486649 0.967737 0.763192
832 1 0.473651 0.956937 0.793638
833 3 0.481421 0.948975 0.806317
834 4 0.46256 0.958114 0.795232
835 1 0.481563 0.931806 0.796295
836 3 0.495408 0.929659 0.805861
837 4 0.479231 0.923844 0.789538
838 1 0.507559 0.938867 0.791588
839 3 0.51653 0.943298 0.806469
840 4 0.511585 0.942952 0.781641
841 1 0.50438 0.958599 0.811404
842 3 0.509537 0.953199 0.827576
843 4 0.497669 0.966561 0.811404
844 1 0.496185 0.93956 0.830157
845 3 0.505934 0.927998 0.838357
846 4 0.485872 0.935267 0.830537
847 1 0.51434 0.921074 0.819528
848 3 0.515047 0.90522 0.824463
849 4 0.522958 0.923221 0.825829
850 1 0.496115 0.901412 0.819983
851 3 0.485024 0.908197 0.808139
852 4 0.491664 0.901828 0.830992
853 1 0.478454 0.890889 0.800698
854 3 0.466657 0.895528 0.811935
855 4 0.47683 0.881196 0.796978
856 1 0.454507 0.904874 0.796599
857 3 0.444052 0.893381 0.802597
858 4 0.449774 0.904182 0.785665
859 1 0.441791 0.904182 0.821198
860 3 0.434092 0.919205 0.821957
861 4 0.448361 0.904251 0.830157
862 1 0.416361 0.910897 0.828942
863 3 0.414312 0.925159 0.836155
864 4 0.408307 0.903628 0.830689
865 1 0.424767 0.921074 0.853921
866 3 0.431548 0.936444 0.857642
867 4 0.429217 0.915467 0.862729
868 1 0.443628 0.936721 0.840407
869 3 0.43939 0.951675 0.835092
870 4 0.452953 0.931736 0.836839
871 1 0.432961 0.944544 0.815276
872 3 0.417915 0.949322 0.808139
873 4 0.437624 0.940529 0.805861
874 1 0.406471 0.941706 0.823248
875 3 0.400608 0.937067 0.807152
876 5 0.416572 0.86793 0.783659
877 1 0.385914 0.949945 0.805937
878 3 0.384996 0.948491 0.787943
879 4 0.379062 0.957768 0.807835
880 1 0.402374 0.956314 0.783616
881 3 0.402444 0.943852 0.77124
882 4 0.41191 0.96123 0.785058
883 1 0.409791 0.930767 0.783919
884 3 0.401102 0.920313 0.774884
885 4 0.41629 0.926613 0.792043
886 1 0.384784 0.920936 0.788323
887 3 0.374258 0.917128 0.77496
888 4 0.378002 0.922459 0.797282
889 1 0.376095 0.934436 0.765318
890 3 0.378355 0.925228 0.750361
891 4 0.375389 0.944614 0.764179
892 1 0.397711 0.925921 0.750513
893 3 0.39425 0.911728 0.740794
894 4 0.408166 0.927652 0.752031
895 1 0.393261 0.900028 0.757649
896 3 0.381534 0.891858 0.746716
897 4 0.393473 0.895804 0.768127
898 1 0.366629 0.902589 0.75074
899 3 0.362532 0.897535 0.733961
900 4 0.359353 0.90882 0.755979
901 1 0.371574 0.912697 0.724774
902 3 0.375035 0.90162 0.711184
903 4 0.376448 0.922251 0.723332
904 1 0.390294 0.893312 0.720371
905 3 0.386479 0.880019 0.710652
906 5 0.384219 0.820385 0.677515
907 1 0.373693 0.873304 0.725609
908 3 0.363874 0.868596 0.711487
909 4 0.368254 0.871227 0.735479
910 1 0.354125 0.885627 0.710576
911 3 0.352289 0.881127 0.69281
912 4 0.349604 0.895112 0.713461
913 1 0.368254 0.890404 0.686432
914 3 0.371503 0.87905 0.673373
915 4 0.377084 0.896912 0.685901
916 1 0.376801 0.865065 0.687571