LAMMPS protain data file

        8634  atoms
       11502  bonds
           0  angles
           0  dihedrals
           0  impropers

           5  atom types
           5  bond types
           0  angle types
           0  dihedral types
           0  improper types

-200.0	200.0	xlo xhi
-200.0	200.0	ylo yhi
-200.0	200.0	zlo zhi

Masses

           1	27.0
           2	14.0
           3	28.0
           4	60.0
           5	60.0

Atoms

           1	1	1	1	0.0	74.82	132.16	107.68
           2	1	1	3	0.0	72.8	133.5	107.68
           3	1	1	4	0.0	74.76	131.02	108.75
           4	1	2	1	0.0	71.54	132.23	105.66
           5	1	2	3	0.0	70.32	130.72	107.19
           6	1	2	4	0.0	71.36	131.47	104.26
           7	1	3	1	0.0	68.01	132.39	107.020004
           8	1	3	3	0.0	67.55	131.41	104.82
           9	1	3	4	0.0	67.22	133.6	107.48
          10	1	4	1	0.0	65.56	129.71	105.72
          11	1	4	3	0.0	64.86	129.67	103.43
          12	1	4	4	0.0	64.57	129.02	106.62
          13	1	5	1	0.0	63.890003	132.14	103.35
          14	1	5	3	0.0	64.81	132.22	101.14
          15	1	5	4	0.0	63.14	133.42	103.74
          16	1	6	1	0.0	67.34	133.25	102.01
          17	1	6	3	0.0	68.32	132.08	100.15001
          18	1	6	4	0.0	68.51	133.98	102.78
          19	1	7	1	0.0	68.53	129.61	101.42
          20	1	7	3	0.0	67.9	128.85	99.2
          21	1	7	4	0.0	68.82	128.42	102.38999
          22	1	8	1	0.0	65.17	128.96	99.649994
          23	1	8	3	0.0	65.04	129.53	97.23001
          24	1	8	4	0.0	63.790005	129.03	100.36
          25	1	9	1	0.0	65.56	132.25	97.64
          26	1	9	3	0.0	66.92	131.93	95.6
          27	1	9	4	0.0	65.47	133.77	98.1
          28	1	10	1	0.0	69.17	131.3	96.920006
          29	1	10	3	0.0	69.59	130.05	94.89001
          30	1	10	4	0.0	70.33	131.07	97.97
          31	1	11	1	0.0	68.11	127.88	95.57
          32	1	11	3	0.0	67.47	127.63	93.299995
          33	1	11	4	0.0	67.53	126.700005	96.32
          34	1	12	1	0.0	65.47	129.56	93.34
          35	1	12	3	0.0	66.32	129.88	91.22
          36	1	12	4	0.0	64.4	130.43	93.99
          37	1	13	1	0.0	68.04	132.07	91.98
          38	1	13	3	0.0	69.57	131.48	90.21
          39	1	13	4	0.0	68.69	133.25	92.88
          40	1	14	1	0.0	70.87	129.46	91.8
          41	1	14	3	0.0	71.21	128.27	89.78
          42	1	14	4	0.0	71.62	128.74	92.93
          43	1	15	1	0.0	68.68	127.11	89.69
          44	1	15	3	0.0	68.88	127.36	87.340004
          45	1	15	4	0.0	67.37	126.43	90.14
          46	1	16	1	0.0	67.91	129.9	87.08999
          47	1	16	3	0.0	69.65	130.22	85.35
          48	1	16	4	0.0	66.97	131.09	87.0
          49	1	17	1	0.0	71.61	130.9	87.16
          50	1	17	3	0.0	72.96	129.71	85.41
          51	1	17	4	0.0	72.3	131.37	88.47001
          52	1	18	1	0.0	72.56	127.20999	86.509995
          53	1	18	3	0.0	72.64	126.62	84.22
          54	1	18	4	0.0	72.62	126.1	87.58001
          55	1	19	1	0.0	69.86	126.75	83.79
          56	1	19	3	0.0	70.73	127.22	81.57
          57	1	19	4	0.0	68.45	127.11	83.98
          58	1	20	1	0.0	71.54	129.81	81.96
          59	1	20	3	0.0	73.39	129.71	80.5
          60	1	20	4	0.0	71.62	131.33	82.45
          61	1	21	1	0.0	75.12	128.51	82.29
          62	1	21	3	0.0	76.03	126.99	80.71
          63	1	21	4	0.0	75.88	128.46	83.63
          64	1	22	1	0.0	74.11	124.9	81.2
          65	1	22	3	0.0	74.05	124.39	78.86
          66	1	22	4	0.0	73.38	123.90001	82.05
          67	1	23	1	0.0	72.11	126.4	78.23
          68	1	23	3	0.0	73.33	126.50001	76.16
          69	1	23	4	0.0	71.15	127.61	78.31
          70	1	24	1	0.0	75.39	127.94	77.16
          71	1	24	3	0.0	76.44	126.85	75.45
          72	1	24	5	0.0	74.22	120.90924215	71.94531191
          73	1	25	1	0.0	76.93	124.57	76.76
          74	1	25	3	0.0	76.38	123.61	74.54
          75	1	25	4	0.0	77.25	123.44	77.81
          76	1	26	1	0.0	73.74	123.05	75.19
          77	1	26	3	0.0	73.49	123.03	72.8
          78	1	26	4	0.0	72.45	122.89001	76.05
          79	1	27	1	0.0	73.61	125.79	72.59
          80	1	27	3	0.0	74.49	125.30999	70.4
          81	1	27	4	0.0	73.64	127.36	72.97
          82	1	28	1	0.0	77.09	124.82	71.3
          83	1	28	3	0.0	77.13	122.97	69.73
          84	1	28	4	0.0	78.36	124.98999	72.07
          85	1	29	1	0.0	76.5	121.09	71.51
          86	1	29	3	0.0	75.61	120.09	69.52
          87	1	29	4	0.0	76.07	120.37	72.81
          88	1	30	1	0.0	73.07	121.17999	69.75
          89	1	30	3	0.0	72.39	121.7	67.41
          90	1	30	4	0.0	71.72	121.53	70.47
          91	1	31	1	0.0	74.34	123.55	66.97
          92	1	31	3	0.0	74.57	122.35	64.89
          93	1	31	4	0.0	75.34	124.82	67.21
          94	1	32	1	0.0	77.04	121.34	65.53
          95	1	32	3	0.0	75.99	119.12	65.69
          96	1	32	4	0.0	78.16	120.85999	66.42
          97	1	33	1	0.0	75.98	118.69001	62.96
          98	1	33	3	0.0	78.24	117.76	63.24
          99	1	33	4	0.0	75.47	118.89001	61.5
         100	1	34	1	0.0	77.6	115.15	63.13
         101	1	34	3	0.0	78.55	113.47	61.699997
         102	1	34	4	0.0	77.11	113.94	63.98
         103	1	35	1	0.0	77.75	114.63	59.36
         104	1	35	3	0.0	79.96	115.31	59.72
         105	1	35	4	0.0	76.85	115.37	58.4
         106	1	36	1	0.0	80.81	114.21	57.02
         107	1	36	3	0.0	81.6	116.600006	57.34
         108	1	36	4	0.0	80.66	114.03	55.46
         109	1	37	1	0.0	84.29	115.99	57.72
         110	1	37	3	0.0	84.96	117.560005	59.44
         111	1	37	4	0.0	84.59	117.03	56.680004
         112	1	38	1	0.0	83.46	116.15001	61.53
         113	1	38	3	0.0	84.92	117.17999	63.09
         114	1	38	4	0.0	82.67	114.99	62.2
         115	1	39	1	0.0	86.95	115.31	62.91
         116	1	39	3	0.0	89.21	116.26	62.740005
         117	1	39	4	0.0	87.51	113.86	62.86
         118	1	40	1	0.0	88.4	118.59	61.39
         119	1	40	3	0.0	88.14	120.79001	61.86
         120	1	40	4	0.0	88.73999	118.86	59.87
         121	1	41	1	0.0	85.37	120.8	62.18
         122	1	41	3	0.0	85.77	120.9	64.49
         123	1	41	4	0.0	83.96	120.27	62.14
         124	1	42	1	0.0	86.38999	123.52	64.58
         125	1	42	3	0.0	85.69	123.36	66.93
         126	1	42	4	0.0	86.59	124.96	64.21
         127	1	43	1	0.0	83.03	123.88	66.44
         128	1	43	3	0.0	82.32	122.51999	68.31
         129	1	43	4	0.0	81.66	124.26	65.83
         130	1	44	1	0.0	82.9	120.05	67.27
         131	1	44	3	0.0	83.38	119.399994	69.52
         132	1	44	4	0.0	83.0	118.97	66.21
         133	1	45	1	0.0	85.84	120.409996	69.64
         134	1	45	3	0.0	85.41	120.95	71.96
         135	1	45	4	0.0	87.25	120.84	69.07
         136	1	46	1	0.0	84.08	123.36	71.34
         137	1	46	3	0.0	82.52	122.73	73.06
         138	1	46	4	0.0	83.7	124.71	70.66
         139	1	47	1	0.0	80.93	121.07	71.6
         140	1	47	3	0.0	80.65	119.67	73.53
         141	1	47	4	0.0	80.17	120.55	70.31
         142	1	48	1	0.0	83.09	118.31	73.17
         143	1	48	3	0.0	83.23	118.36	75.51
         144	1	48	4	0.0	84.27	117.68001	72.5
         145	1	49	1	0.0	84.43	120.78	75.79
         146	1	49	3	0.0	83.03	121.2	77.74
         147	1	49	4	0.0	85.53	121.83	75.52
         148	1	50	1	0.0	80.85	122.06	76.34
         149	1	50	3	0.0	79.6	120.87	77.98
         150	1	50	4	0.0	79.98	122.66	75.26
         151	1	51	1	0.0	79.89	118.27	76.84
         152	1	51	3	0.0	79.99	117.58	79.1
         153	1	51	4	0.0	80.04	117.04001	75.89
         154	1	52	1	0.0	82.63	117.92	79.49
         155	1	52	3	0.0	81.97	118.50001	81.74
         156	1	52	4	0.0	84.18	117.85	79.2
         157	1	53	1	0.0	81.59	121.2	81.22
         158	1	53	3	0.0	79.83	121.1	82.86
         159	1	53	4	0.0	81.61	122.509995	80.36
         160	1	54	1	0.0	77.91	120.44	81.02
         161	1	54	3	0.0	76.95	119.38	83.04
         162	1	54	4	0.0	77.13	120.18	79.62
         163	1	55	1	0.0	78.38	117.04001	82.69
         164	1	55	3	0.0	78.35	117.0	85.15
         165	1	55	4	0.0	79.03	115.83001	82.04
         166	1	56	1	0.0	80.66	118.51999	85.26
         167	1	56	3	0.0	79.5	119.2	87.270004
         168	1	56	4	0.0	81.9	119.340004	84.96
         169	1	57	1	0.0	77.79	120.979996	85.87
         170	1	57	3	0.0	76.07	120.659996	87.61
         171	1	57	5	0.0	78.93	114.44060081	80.40894367
         172	1	58	1	0.0	75.27	118.23	86.63999
         173	1	58	3	0.0	75.11	117.33	88.78
         174	1	58	4	0.0	74.74	117.1	85.76
         175	1	59	1	0.0	77.85	116.76	89.07
         176	1	59	3	0.0	77.58	117.42	91.35
         177	1	59	4	0.0	79.31	116.33	88.68
         178	1	60	1	0.0	78.19	120.21999	90.86
         179	1	60	3	0.0	76.67	120.64	92.73999
         180	1	60	4	0.0	78.7	121.51	90.24
         181	1	61	1	0.0	74.35	120.600006	91.11
         182	1	61	3	0.0	73.15	120.78	93.2
         183	1	61	4	0.0	73.5	120.58	89.86
         184	1	62	1	0.0	73.11	118.28	94.03
         185	1	62	3	0.0	73.27	119.14001	96.21
         186	1	62	4	0.0	73.03	116.8	93.93001
         187	1	63	1	0.0	76.19	119.23	96.08
         188	1	63	3	0.0	75.97	121.23001	97.37
         189	1	63	4	0.0	77.63	119.04	95.61
         190	1	64	1	0.0	75.38	122.92	95.29
         191	1	64	3	0.0	74.16	123.99	97.05
         192	1	64	4	0.0	75.32	123.61	93.9
         193	1	65	1	0.0	71.8	122.57001	96.41999
         194	1	65	3	0.0	71.34	122.74	98.75
         195	1	65	4	0.0	70.81	121.78	95.590004
         196	1	66	1	0.0	72.87	120.53999	99.5
         197	1	66	3	0.0	73.15	121.97	101.34
         198	1	66	4	0.0	73.47	119.14001	99.73
         199	1	67	1	0.0	75.47	123.270004	100.43
         200	1	67	3	0.0	74.76	125.04001	101.91
         201	1	67	4	0.0	76.72	123.8	99.68
         202	1	68	1	0.0	72.81	125.94999	100.16
         203	1	68	3	0.0	71.59	126.48	102.16
         204	1	68	4	0.0	71.86	126.38999	98.98
         205	1	69	1	0.0	69.94	124.26	101.98
         206	1	69	3	0.0	69.44	123.47	104.12
         207	1	69	4	0.0	68.89	123.52999	101.12
         208	1	70	1	0.0	71.5	121.77	104.28
         209	1	70	3	0.0	73.58	120.94	105.21
         210	1	70	4	0.0	71.0	120.28	104.16999
         211	1	71	1	0.0	75.0	123.38	104.58
         212	1	71	3	0.0	75.1	122.59	106.93
         213	1	71	5	0.0	73.55	116.12768692	97.24666137
         214	1	72	1	0.0	77.89	122.38999	106.97
         215	1	72	3	0.0	78.49	120.73999	108.52
         216	1	72	4	0.0	77.76	123.52	108.15001
         217	1	73	1	0.0	77.06	118.700005	106.92
         218	1	73	3	0.0	78.29	116.75	106.35
         219	1	73	4	0.0	75.63	118.130005	106.48
         220	1	74	1	0.0	80.05	118.19999	104.48
         221	1	74	3	0.0	80.42	115.88	103.96
         222	1	74	4	0.0	80.61	119.5	103.76
         223	1	75	1	0.0	78.73	115.62	101.74999
         224	1	75	3	0.0	79.61	114.04	100.27
         225	1	75	4	0.0	77.49	116.0	100.82
         226	1	76	1	0.0	82.15	115.05	100.18
         227	1	76	3	0.0	84.09	115.12	101.67
         228	1	76	4	0.0	82.68	116.07	99.1
         229	1	77	1	0.0	84.75	112.43	101.22
         230	1	77	3	0.0	86.01	113.549995	99.52999
         231	1	77	4	0.0	84.47	111.0	100.73999
         232	1	78	1	0.0	88.24	113.98	101.29
         233	1	78	3	0.0	89.47	114.75	99.42
         234	1	78	4	0.0	89.17999	113.85	102.53
         235	1	79	1	0.0	89.93001	112.2	98.3
         236	1	79	3	0.0	89.58	112.85	96.0
         237	1	79	4	0.0	90.439995	110.700005	98.17
         238	1	80	1	0.0	86.97	112.729996	96.18
         239	1	80	3	0.0	86.47	114.78	95.14001
         240	1	80	4	0.0	85.62	112.07	96.37
         241	1	81	1	0.0	86.89001	116.28999	97.45
         242	1	81	3	0.0	87.96	117.86	96.01
         243	1	81	4	0.0	86.81	116.65	98.98
         244	1	82	1	0.0	90.55	116.52	96.2
         245	1	82	3	0.0	90.79	117.44	93.94999
         246	1	82	4	0.0	91.69	115.49	96.46
         247	1	83	1	0.0	89.28	115.5	92.670006
         248	1	83	3	0.0	88.56	117.38	91.329994
         249	1	83	4	0.0	88.77	114.19999	92.18
         250	1	84	1	0.0	86.18	117.6	92.85999
         251	1	84	3	0.0	86.36	119.72	91.75
         252	1	84	4	0.0	85.05	117.47	94.01
         253	1	85	1	0.0	88.09	120.93	93.490005
         254	1	85	3	0.0	89.10999	121.99999	91.51
         255	1	85	4	0.0	88.72001	121.42999	94.82001
         256	1	86	1	0.0	90.63	119.90001	90.61
         257	1	86	3	0.0	90.27	120.77	88.41999
         258	1	86	4	0.0	91.55	118.700005	90.57001
         259	1	87	1	0.0	87.77	119.72	87.96999
         260	1	87	3	0.0	87.6	121.73	86.63999
         261	1	87	4	0.0	86.54	118.89001	88.18
         262	1	88	1	0.0	86.78	123.340004	88.77
         263	1	88	3	0.0	88.03001	125.05	87.590004
         264	1	88	4	0.0	86.1	123.84999	90.08
         265	1	89	1	0.0	90.450005	124.409996	88.61
         266	1	89	3	0.0	91.1	125.22	86.41
         267	1	89	4	0.0	91.69	123.93	89.47
         268	1	90	1	0.0	90.82001	122.700005	85.18
         269	1	90	3	0.0	90.36	124.03001	83.24
         270	1	90	4	0.0	90.66	121.19	85.08
         271	1	91	1	0.0	87.8	124.27	83.58
         272	1	91	3	0.0	87.88	126.439995	82.51
         273	1	91	4	0.0	86.28	123.98	83.9
         274	1	92	1	0.0	88.659996	127.73	85.07
         275	1	92	3	0.0	89.96	129.12	83.52
         276	1	92	4	0.0	88.85999	128.01	86.6
         277	1	93	1	0.0	92.06	127.079994	83.56
         278	1	93	3	0.0	92.53999	128.01	81.44
         279	1	93	4	0.0	92.95	125.84	83.95
         280	1	94	1	0.0	90.75	126.3	80.08
         281	1	94	3	0.0	90.58	128.07	78.46
         282	1	94	4	0.0	89.72	125.17	79.82
         283	1	95	1	0.0	89.10999	129.76	79.96
         284	1	95	3	0.0	90.4	131.35	78.8
         285	1	95	4	0.0	88.01	130.29	81.0
         286	1	96	1	0.0	92.52	131.37	80.63
         287	1	96	3	0.0	93.82	131.89	78.62
         288	1	96	4	0.0	93.46	131.31	81.87
         289	1	97	1	0.0	94.3	129.23	77.99
         290	1	97	3	0.0	94.29	129.65	75.62
         291	1	97	4	0.0	94.73	127.79	78.1
         292	1	98	1	0.0	91.54	129.69	75.4
         293	1	98	3	0.0	91.79	131.49	73.83
         294	1	98	4	0.0	90.02	129.37	75.67
         295	1	99	1	0.0	91.68	133.46	75.83
         296	1	99	3	0.0	93.17999	134.71	74.44
         297	1	99	4	0.0	91.58001	134.15	77.23
         298	1	100	1	0.0	95.41	133.22	75.01
         299	1	100	3	0.0	96.01	133.6	72.68
         300	1	100	4	0.0	96.45	132.4	75.72
         301	1	101	1	0.0	94.56	131.56	71.71
         302	1	101	3	0.0	94.189995	133.11	69.91
         303	1	101	4	0.0	93.82	130.28	71.52
         304	1	102	1	0.0	92.04	134.3	71.09
         305	1	102	3	0.0	92.9	136.37	70.0
         306	1	102	4	0.0	90.83	134.57	72.01
         307	1	103	1	0.0	94.66	136.98	71.98
         308	1	103	3	0.0	96.09999	137.86	70.31
         309	1	103	4	0.0	95.15	137.18	73.43
         310	1	104	1	0.0	97.13	135.36	69.67
         311	1	104	3	0.0	97.30999	136.27	67.4
         312	1	104	4	0.0	97.560005	133.85	69.78
         313	1	105	1	0.0	94.65	135.74	66.8
         314	1	105	3	0.0	94.4	137.82	65.7
         315	1	105	4	0.0	93.44	134.79	66.61
         316	1	106	1	0.0	93.74	139.31	68.06
         317	1	106	3	0.0	95.11	141.12	67.24
         318	1	106	4	0.0	93.299995	139.75	69.49
         319	1	107	1	0.0	97.560005	139.94	67.74
         320	1	107	3	0.0	98.29	141.16	65.83
         321	1	107	4	0.0	98.700005	139.33	68.53
         322	1	108	1	0.0	97.51	139.18	63.96
         323	1	108	3	0.0	97.05999	140.96	62.51
         324	1	108	4	0.0	97.25	137.78	63.319996
         325	1	109	1	0.0	94.50001	141.46	63.45
         326	1	109	3	0.0	94.42	143.75	63.259995
         327	1	109	4	0.0	93.03	141.23	63.85
         328	1	110	1	0.0	96.44	144.25	65.17
         329	1	110	3	0.0	97.41	145.47	63.45
         330	1	110	4	0.0	96.87	144.38	66.55
         331	1	111	1	0.0	99.32	143.27	62.76
         332	1	111	3	0.0	101.09	142.68	64.32
         333	1	111	4	0.0	99.67	144.48	61.86
         334	1	112	1	0.0	101.98	140.48	62.79
         335	1	112	3	0.0	104.01	140.63	61.72
         336	1	112	4	0.0	101.240005	139.28	63.5
         337	1	113	1	0.0	101.490005	138.63	59.99
         338	1	113	3	0.0	100.53	140.78	59.59
         339	1	113	4	0.0	102.00001	137.79	58.88
         340	1	114	1	0.0	98.18	139.84	58.429996
         341	1	114	3	0.0	96.88	137.88	57.96
         342	1	114	4	0.0	98.59	140.63	57.23
         343	1	115	1	0.0	94.43	139.05	58.580006
         344	1	115	3	0.0	92.51	139.3	57.12
         345	1	115	4	0.0	93.76	139.33	59.96
         346	1	116	1	0.0	93.62999	141.35	55.539997
         347	1	116	3	0.0	95.19	139.76	54.489998
         348	1	116	4	0.0	94.17	142.73	55.13
         349	1	117	1	0.0	93.42999	138.92	52.47
         350	1	117	3	0.0	93.7	136.5	52.66
         351	1	117	4	0.0	94.73	139.02	51.66
         352	1	118	1	0.0	91.399994	136.15	54.22
         353	1	118	3	0.0	88.98999	136.47	53.950005
         354	1	118	4	0.0	91.3	136.02	55.78
         355	1	119	1	0.0	88.85	134.2	52.26
         356	1	119	3	0.0	87.64	132.29	52.209995
         357	1	119	4	0.0	89.03	134.13	50.680004
         358	1	120	1	0.0	89.05	130.96	54.31
         359	1	120	3	0.0	90.43	131.99	56.09
         360	1	120	4	0.0	89.7	130.01	53.23
         361	1	121	1	0.0	89.77	130.02	58.03
         362	1	121	3	0.0	91.75	128.95	57.190002
         363	1	121	4	0.0	88.979996	129.09	58.8
         364	1	122	1	0.0	93.27	129.33	59.44
         365	1	122	3	0.0	92.38	127.270004	60.09
         366	1	122	4	0.0	93.810005	130.05	60.76
         367	1	123	1	0.0	94.24	125.71	58.7
         368	1	123	3	0.0	93.96	123.63	59.66
         369	1	123	4	0.0	95.2	125.38	57.56
         370	1	124	1	0.0	95.2	124.31	62.09
         371	1	124	3	0.0	94.29	124.25	64.35
         372	1	124	4	0.0	96.63	124.49	62.680004
         373	1	125	1	0.0	92.23	126.06999	63.699997
         374	1	125	3	0.0	91.13	125.51	65.7
         375	1	125	4	0.0	91.36	127.03	62.93
         376	1	126	1	0.0	90.700005	122.92	65.2
         377	1	126	3	0.0	91.340004	122.509995	67.55
         378	1	126	4	0.0	90.03	121.68001	64.46
         379	1	127	1	0.0	93.94999	121.51	66.82
         380	1	127	3	0.0	94.58	121.93001	69.0
         381	1	127	4	0.0	95.25	121.22	65.98
         382	1	128	1	0.0	94.42	124.78	68.72
         383	1	128	3	0.0	94.14	124.72001	71.05
         384	1	128	4	0.0	94.15	126.15	68.23
         385	1	129	1	0.0	91.49	123.79	71.0
         386	1	129	3	0.0	92.01	122.55	72.9
         387	1	129	4	0.0	90.01	123.62	70.43
         388	1	130	1	0.0	92.81	120.3	71.42
         389	1	130	3	0.0	94.34	119.84	73.28
         390	1	130	4	0.0	93.05	119.17	70.32
         391	1	131	1	0.0	96.21	121.810005	72.35
         392	1	131	3	0.0	96.45	122.34	74.61
         393	1	131	4	0.0	97.1	122.56	71.34
         394	1	132	1	0.0	94.57001	124.409996	74.63
         395	1	132	3	0.0	94.47	123.58001	76.98
         396	1	132	4	0.0	93.46	125.490005	74.33
         397	1	133	1	0.0	92.82	121.52	76.46
         398	1	133	3	0.0	94.01	120.46	78.14
         399	1	133	4	0.0	91.71001	120.71	75.77
         400	1	134	1	0.0	96.01	119.3	76.45
         401	1	134	3	0.0	97.41	119.26001	78.41
         402	1	134	4	0.0	96.71	118.69001	75.23
         403	1	135	1	0.0	97.97	122.12001	78.17
         404	1	135	3	0.0	97.68001	122.130005	80.53
         405	1	135	4	0.0	98.03	123.47	77.46
         406	1	136	1	0.0	94.93	122.85	80.35
         407	1	136	3	0.0	94.73	122.06	82.54
         408	1	136	4	0.0	93.4	123.14001	79.98
         409	1	137	1	0.0	94.92	119.26001	81.79
         410	1	137	3	0.0	96.19	119.04	83.79
         411	1	137	4	0.0	94.58	117.99	81.07
         412	1	138	1	0.0	98.71	119.83001	82.42
         413	1	138	3	0.0	99.37	120.75	84.58
         414	1	138	5	0.0	97.35	111.67933046	77.04289014
         415	1	139	1	0.0	99.12	123.37	83.67
         416	1	139	3	0.0	98.59	124.350006	85.79
         417	1	139	4	0.0	99.19	124.59	82.73
         418	1	140	1	0.0	96.01	123.23	85.99
         419	1	140	3	0.0	96.4	123.01001	88.41999
         420	1	140	4	0.0	94.6	122.74	85.68
         421	1	141	1	0.0	97.64	120.41999	88.09
         422	1	141	3	0.0	97.83	120.52	90.46
         423	1	141	4	0.0	98.24	119.18	87.32
         424	1	142	1	0.0	100.2	121.94999	90.48
         425	1	142	3	0.0	99.90001	123.340004	92.37
         426	1	142	4	0.0	101.6	122.31999	89.85
         427	1	143	1	0.0	97.810005	124.83	91.42
         428	1	143	3	0.0	97.23001	124.97	93.74999
         429	1	143	4	0.0	96.9	125.619995	90.49
         430	1	144	1	0.0	95.51	122.86	94.14
         431	1	144	3	0.0	96.28999	121.74	96.05
         432	1	144	4	0.0	94.3	121.97	93.82
         433	1	145	1	0.0	98.94001	121.37	95.41
         434	1	145	3	0.0	99.89	122.33	97.42999
         435	1	145	4	0.0	99.90001	120.600006	94.56
         436	1	146	1	0.0	100.01	124.93	96.41999
         437	1	146	3	0.0	98.98	126.09	98.36
         438	1	146	4	0.0	100.28999	126.11	95.49
         439	1	147	1	0.0	96.52	125.240005	98.25001
         440	1	147	3	0.0	96.43	124.32	100.4
         441	1	147	5	0.0	97.47	118.0437493	92.37352549
         442	1	148	1	0.0	97.30999	121.89	99.86
         443	1	148	3	0.0	98.58	121.42999	101.85
         444	1	148	4	0.0	97.240005	120.53999	99.22
         445	1	149	1	0.0	100.600006	123.18	101.44
         446	1	149	3	0.0	100.88	124.11	103.54
         447	1	149	4	0.0	101.66	123.98	100.62
         448	1	150	1	0.0	98.48	125.36001	103.84999
         449	1	150	3	0.0	98.99	124.59	106.11
         450	1	150	4	0.0	97.30999	126.36	103.5
         451	1	151	1	0.0	97.35	122.42	105.99
         452	1	151	3	0.0	96.409996	121.15	104.13
         453	1	151	4	0.0	96.16999	122.78	106.95
         454	1	152	1	0.0	97.03	118.6	105.22
         455	1	152	3	0.0	95.16	117.22	104.82
         456	1	152	4	0.0	97.869995	117.51	105.86
         457	1	153	1	0.0	93.48001	118.6	106.65
         458	1	153	3	0.0	91.44	119.83001	106.49
         459	1	153	4	0.0	93.41	118.73	108.21
         460	1	154	1	0.0	92.05	121.16001	104.07
         461	1	154	3	0.0	89.82	121.19	103.32
         462	1	154	4	0.0	92.77	121.810005	102.89001
         463	1	155	1	0.0	89.45	118.48	102.89001
         464	1	155	3	0.0	87.87	116.76	103.77
         465	1	155	4	0.0	89.74999	117.58	101.66
         466	1	156	1	0.0	89.0	116.659996	106.27
         467	1	156	3	0.0	87.06	115.44	106.71
         468	1	156	4	0.0	89.89	116.97	107.52
         469	1	157	1	0.0	85.49	117.72	107.25
         470	1	157	3	0.0	83.33	117.54	106.189995
         471	1	157	4	0.0	85.31	118.98	108.11
         472	1	158	1	0.0	84.1	117.84	103.66
         473	1	158	3	0.0	83.54	119.020004	101.67
         474	1	158	5	0.0	84.91	109.38496671	96.48825727
         475	1	159	1	0.0	84.76	121.42999	102.55
         476	1	159	3	0.0	87.020004	121.25	101.73
         477	1	159	4	0.0	84.96	122.61	103.55
         478	1	160	1	0.0	86.380005	121.65	99.079994
         479	1	160	3	0.0	87.26001	123.16	97.36001
         480	1	160	4	0.0	85.86	120.82	97.91
         481	1	161	1	0.0	86.93	125.49999	98.97
         482	1	161	3	0.0	88.21999	126.6	97.30999
         483	1	161	4	0.0	86.73	126.46	100.21
         484	1	162	1	0.0	90.66	125.35	98.31
         485	1	162	3	0.0	91.99	127.38	98.3
         486	1	162	4	0.0	91.46001	124.09	98.46
         487	1	163	1	0.0	91.73	127.76	101.01
         488	1	163	3	0.0	90.62	129.43	99.73
         489	1	163	4	0.0	93.23001	127.41	101.08
         490	1	164	1	0.0	91.64	131.62	101.28
         491	1	164	3	0.0	93.549995	131.44	99.78001
         492	1	164	4	0.0	91.77	132.3	102.65
         493	1	165	1	0.0	92.7	133.52	98.01
         494	1	165	3	0.0	94.69001	134.27	99.16
         495	1	165	4	0.0	91.98	134.81	97.52
         496	1	166	1	0.0	96.32	133.6	97.05
         497	1	166	3	0.0	97.74	135.29	96.07
         498	1	166	4	0.0	96.82	132.19	97.299995
         499	1	167	1	0.0	97.39	134.62	93.6
         500	1	167	3	0.0	97.21	136.1	91.77
         501	1	167	4	0.0	97.42	133.39	92.68
         502	1	168	1	0.0	95.39	137.83	93.17999
         503	1	168	3	0.0	96.06	139.36	91.57
         504	1	168	4	0.0	94.439995	138.45	94.25001
         505	1	169	1	0.0	98.3	140.16	92.82
         506	1	169	3	0.0	98.95999	140.21	90.57001
         507	1	169	4	0.0	99.20999	140.71	93.83
         508	1	170	1	0.0	100.52	137.84	90.72
         509	1	170	3	0.0	100.5	137.53	88.44
         510	1	170	4	0.0	101.36001	136.72	91.2
         511	1	171	1	0.0	97.810005	136.49	88.33
         512	1	171	3	0.0	96.87	138.28	87.05
         513	1	171	5	0.0	98.59	126.79245003	81.79845619
         514	1	172	1	0.0	94.27	138.18	88.37
         515	1	172	3	0.0	93.560005	140.25	87.270004
         516	1	172	4	0.0	93.240005	137.98	89.560005
         517	1	173	1	0.0	95.58001	141.68	88.68
         518	1	173	3	0.0	96.39	142.11	86.439995
         519	1	173	4	0.0	95.95	142.32	90.04
         520	1	174	1	0.0	99.1	142.1	87.38
         521	1	174	3	0.0	99.52999	142.15	84.97
         522	1	174	4	0.0	100.350006	141.87	88.2
         523	1	175	1	0.0	99.43	139.31	84.78
         524	1	175	3	0.0	98.34	137.85	83.21
         525	1	175	4	0.0	100.26	138.08	85.2
         526	1	176	1	0.0	95.83001	138.99	83.67
         527	1	176	3	0.0	94.92	140.49	82.01
         528	1	176	4	0.0	95.04	138.08	84.67
         529	1	177	1	0.0	93.67	142.17	83.9
         530	1	177	3	0.0	93.82	143.82	82.12
         531	1	177	4	0.0	93.15	142.71	85.27
         532	1	178	1	0.0	96.33	144.8	82.9
         533	1	178	3	0.0	96.28	145.09	80.47
         534	1	178	4	0.0	97.49999	145.19	83.76
         535	1	179	1	0.0	97.64	142.91	79.61
         536	1	179	3	0.0	96.350006	143.01	77.68
         537	1	179	4	0.0	98.74	141.82	79.76
         538	1	180	1	0.0	94.02	141.65	78.73
         539	1	180	3	0.0	92.98999	143.0	77.02
         540	1	180	4	0.0	92.93	141.02	79.75
         541	1	181	1	0.0	92.69	145.19	78.79
         542	1	181	3	0.0	92.84	146.28	76.7
         543	1	181	4	0.0	92.659996	146.19	79.96
         544	1	182	1	0.0	95.73	146.57	76.82
         545	1	182	3	0.0	95.270004	146.67	74.47
         546	1	182	4	0.0	97.23001	146.51	77.13
         547	1	183	1	0.0	95.13	143.94	74.02
         548	1	183	3	0.0	93.64	144.58	72.34
         549	1	183	4	0.0	95.18	142.44	74.32
         550	1	184	1	0.0	91.46001	144.75	73.93
         551	1	184	3	0.0	90.91	146.44	72.21
         552	1	184	4	0.0	90.43	144.49	75.05
         553	1	185	1	0.0	91.83001	148.6	73.64
         554	1	185	3	0.0	92.2	149.69	71.57
         555	1	185	4	0.0	92.350006	149.49	74.78
         556	1	186	1	0.0	94.72	148.48	71.17
         557	1	186	3	0.0	94.06999	148.65	68.91
         558	1	186	4	0.0	96.14	147.87	71.38
         559	1	187	1	0.0	92.53	146.17	69.13
         560	1	187	3	0.0	91.32	147.48	67.53
         561	1	187	4	0.0	92.16	144.67	69.54
         562	1	188	1	0.0	89.560005	148.61	69.4
         563	1	188	3	0.0	89.39	150.06	67.53
         564	1	188	4	0.0	88.81	149.24	70.6
         565	1	189	1	0.0	91.45	151.75	68.42
         566	1	189	3	0.0	91.75	152.29	66.09
         567	1	189	4	0.0	92.57	152.39	69.27
         568	1	190	1	0.0	93.37	150.0	65.49
         569	1	190	3	0.0	92.4	150.23	63.27
         570	1	190	4	0.0	94.19999	148.76	65.6
         571	1	191	1	0.0	90.25001	148.51	63.99
         572	1	191	3	0.0	88.79001	149.8	62.589996
         573	1	191	4	0.0	89.61001	147.26	64.58
         574	1	192	1	0.0	88.28	151.87	64.6
         575	1	192	3	0.0	88.13	153.14	62.51
         576	1	192	4	0.0	88.34	152.74	65.94
         577	1	193	1	0.0	91.0	153.54	62.38
         578	1	193	3	0.0	90.58	153.62	60.03
         579	1	193	4	0.0	92.49	153.68	62.76
         580	1	194	1	0.0	90.74	150.83	59.65
         581	1	194	3	0.0	89.19	151.37	57.950005
         582	1	194	4	0.0	91.01001	149.33	59.93
         583	1	195	1	0.0	86.91	151.27	59.59
         584	1	195	3	0.0	86.05001	152.97	58.06
         585	1	195	4	0.0	85.92	151.06	60.749996
         586	1	196	1	0.0	87.37	155.14	59.34
         587	1	196	3	0.0	87.61	156.49	57.37
         588	1	196	4	0.0	87.81	156.05	60.51
         589	1	197	1	0.0	90.15	155.47	56.680004
         590	1	197	3	0.0	90.49	153.3	55.699997
         591	1	197	4	0.0	91.55	155.64	57.159996
         592	1	198	1	0.0	89.53	154.22	53.099995
         593	1	198	3	0.0	91.44	155.43	52.300003
         594	1	198	4	0.0	88.25	154.61	52.38
         595	1	199	1	0.0	92.16	153.46	50.34
         596	1	199	3	0.0	91.07	154.7	48.54
         597	1	199	4	0.0	92.45	152.17	49.59
         598	1	200	1	0.0	93.240005	156.59	48.34
         599	1	200	3	0.0	94.04	155.09	46.589996
         600	1	200	4	0.0	94.31999	157.55	48.749996
         601	1	201	1	0.0	92.62	156.37	44.589996
         602	1	201	3	0.0	93.299995	158.61	44.02
         603	1	201	4	0.0	91.15	156.33	44.03
         604	1	202	1	0.0	95.75	157.87	42.86
         605	1	202	3	0.0	96.08	156.47	40.83
         606	1	202	4	0.0	97.05	157.52	43.5
         607	1	203	1	0.0	96.11	158.71	39.02
         608	1	203	3	0.0	98.41	157.89	39.21
         609	1	203	4	0.0	96.05	160.04	38.17
         610	1	204	1	0.0	98.450005	157.11	36.57
         611	1	204	3	0.0	97.30999	158.09	34.7
         612	1	204	4	0.0	98.55	155.65	36.73
         613	1	205	1	0.0	99.44	157.9	32.88
         614	1	205	3	0.0	100.03001	156.69	30.93
         615	1	205	4	0.0	100.34	159.11	32.41
         616	1	206	1	0.0	100.28	154.29	32.35
         617	1	206	3	0.0	102.49	154.92	31.79
         618	1	206	5	0.0	99.79	143.4060006	30.34697617
         619	1	207	1	0.0	102.78	152.84	30.04
         620	1	207	3	0.0	101.30999	151.43	28.83
         621	1	207	4	0.0	103.99	152.14	30.83
         622	1	208	1	0.0	102.75	151.68	26.4
         623	1	208	3	0.0	103.020004	149.82	25.11
         624	1	208	4	0.0	103.14001	152.67	25.32
         625	1	209	1	0.0	104.48	148.3	27.08
         626	1	209	3	0.0	102.21	147.57	27.54
         627	1	209	4	0.0	105.61001	148.18	28.17
         628	1	210	1	0.0	102.72	144.87	27.420002
         629	1	210	3	0.0	103.69	144.42	29.659998
         630	1	210	4	0.0	102.97	143.63	26.57
         631	1	211	1	0.0	101.23001	143.78	30.769999
         632	1	211	3	0.0	100.73999	141.5	30.1
         633	1	211	4	0.0	100.38	145.02	31.36
         634	1	212	1	0.0	99.329994	140.95	32.47
         635	1	212	3	0.0	97.78	139.4	31.340002
         636	1	212	4	0.0	98.85	141.09	33.92
         637	1	213	1	0.0	95.94	141.48	30.76
         638	1	213	3	0.0	96.79001	143.59	29.89
         639	1	213	4	0.0	94.63999	141.64	31.67
         640	1	214	1	0.0	94.83999	143.92	27.87
         641	1	214	3	0.0	92.729996	144.68	26.96
         642	1	214	4	0.0	95.51	143.62	26.420002
         643	1	215	1	0.0	91.17	143.77	29.06
         644	1	215	3	0.0	91.47	145.83	30.35
         645	1	215	4	0.0	90.62	142.76	29.99
         646	1	216	1	0.0	89.04001	146.95	29.8
         647	1	216	3	0.0	89.92	149.03	30.340002
         648	1	216	4	0.0	88.85999	146.75	31.36
         649	1	217	1	0.0	90.51999	149.74	27.659998
         650	1	217	3	0.0	90.71	151.92	28.659998
         651	1	217	4	0.0	91.04	149.7	26.22
         652	1	218	1	0.0	87.68	150.85	27.19
         653	1	218	3	0.0	86.9	149.97	29.32
         654	1	218	4	0.0	86.81	152.01	26.64