ITEM: TIMESTEP
0
ITEM: NUMBER OF ATOMS
8634
ITEM: BOX BOUNDS ss ss ss
30.37 150.09
13.38 163.03
-0.33 129.51
ITEM: ATOMS id type xs ys zs
1 1 0.371283 0.793719 0.83187
2 3 0.35441 0.802673 0.83187
3 4 0.370782 0.786101 0.840111
4 1 0.343886 0.794186 0.816312
5 3 0.333695 0.784096 0.828096
6 4 0.342382 0.789108 0.80553
7 1 0.3144 0.795256 0.826787
8 3 0.310558 0.788707 0.809843
9 4 0.307802 0.803341 0.83033
10 1 0.293936 0.777347 0.816774
11 3 0.288089 0.77708 0.799137
12 4 0.285667 0.772736 0.823706
13 1 0.279987 0.793585 0.798521
14 3 0.287671 0.79412 0.7815
15 4 0.273722 0.802138 0.801525
16 1 0.308804 0.801002 0.788201
17 3 0.31699 0.793184 0.773876
18 4 0.318577 0.80588 0.794131
19 1 0.318744 0.776679 0.783657
20 3 0.313481 0.7716 0.766559
21 4 0.321166 0.768727 0.791127
22 1 0.290678 0.772335 0.770025
23 3 0.289592 0.776144 0.751386
24 4 0.279151 0.772803 0.775493
25 1 0.293936 0.79432 0.754544
26 3 0.305296 0.792182 0.738832
27 4 0.293184 0.804477 0.758087
28 1 0.32409 0.787972 0.748999
29 3 0.327598 0.779619 0.733364
30 4 0.333779 0.786435 0.757086
31 1 0.315236 0.765119 0.738601
32 3 0.30989 0.763448 0.721118
33 4 0.310391 0.757234 0.744378
34 1 0.293184 0.776345 0.721426
35 3 0.300284 0.778483 0.705099
36 4 0.284247 0.782158 0.726433
37 1 0.314651 0.793117 0.710952
38 3 0.327431 0.789175 0.69732
39 4 0.32008 0.801002 0.717884
40 1 0.338289 0.775677 0.709566
41 3 0.341129 0.767725 0.694008
42 4 0.344554 0.770865 0.718269
43 1 0.319997 0.759973 0.693315
44 3 0.321667 0.761644 0.675216
45 4 0.309054 0.755429 0.696781
46 1 0.313565 0.778617 0.67329
47 3 0.328099 0.780755 0.659889
48 4 0.305713 0.786569 0.672597
49 1 0.34447 0.785299 0.673829
50 3 0.355747 0.777347 0.660351
51 4 0.350234 0.78844 0.683919
52 1 0.352406 0.760641 0.668823
53 3 0.353074 0.756699 0.651186
54 4 0.352907 0.753224 0.677064
55 1 0.329853 0.757568 0.647874
56 3 0.33712 0.760708 0.630776
57 4 0.318076 0.759973 0.649338
58 1 0.343886 0.778015 0.63378
59 3 0.359338 0.777347 0.622535
60 4 0.344554 0.788172 0.637554
61 1 0.373789 0.769328 0.636322
62 3 0.38139 0.759171 0.624153
63 4 0.380137 0.768994 0.646642
64 1 0.365352 0.745205 0.627927
65 3 0.364851 0.741798 0.609904
66 4 0.359255 0.738523 0.634473
67 1 0.348647 0.755229 0.605052
68 3 0.358837 0.755897 0.58911
69 4 0.340628 0.763314 0.605669
70 1 0.376044 0.76552 0.596811
71 3 0.384815 0.758236 0.583641
72 5 0.366271 0.718538 0.556649
73 1 0.388907 0.743 0.593731
74 3 0.384313 0.736585 0.576633
75 4 0.39158 0.735449 0.601818
76 1 0.362262 0.732843 0.581639
77 3 0.360174 0.73271 0.563232
78 4 0.351487 0.731774 0.588262
79 1 0.361176 0.751153 0.561614
80 3 0.368527 0.747945 0.544747
81 4 0.361427 0.761644 0.564541
82 1 0.390244 0.744671 0.551679
83 3 0.390578 0.732309 0.539587
84 4 0.400852 0.745807 0.557609
85 1 0.385316 0.719746 0.553296
86 3 0.377882 0.713064 0.53797
87 4 0.381724 0.714935 0.563309
88 1 0.356666 0.720347 0.539741
89 3 0.350986 0.723822 0.521719
90 4 0.345389 0.722686 0.545287
91 1 0.367274 0.736184 0.51833
92 3 0.369195 0.728166 0.502311
93 4 0.375626 0.744671 0.520179
94 1 0.389826 0.721417 0.50724
95 3 0.381056 0.706582 0.508472
96 4 0.399181 0.718209 0.514094
97 1 0.380972 0.703709 0.487446
98 3 0.39985 0.697494 0.489603
99 4 0.376712 0.705045 0.476201
100 1 0.394504 0.680053 0.488755
101 3 0.402439 0.668827 0.477742
102 4 0.390411 0.671968 0.495302
103 1 0.395757 0.676579 0.45972
104 3 0.414217 0.681123 0.462492
105 4 0.388239 0.681524 0.452326
106 1 0.421316 0.673772 0.441697
107 3 0.427915 0.689743 0.444162
108 4 0.420063 0.672569 0.429683
109 1 0.450384 0.685667 0.447089
110 3 0.455981 0.696158 0.460336
111 4 0.45289 0.692616 0.439079
112 1 0.443451 0.686736 0.476433
113 3 0.455647 0.693618 0.488447
114 4 0.436853 0.678984 0.481593
115 1 0.472603 0.681123 0.487061
116 3 0.49148 0.687471 0.485752
117 4 0.47728 0.671433 0.486676
118 1 0.484714 0.70304 0.475354
119 3 0.482543 0.717741 0.478974
120 4 0.487554 0.704845 0.463648
121 1 0.459405 0.717808 0.481439
122 3 0.462746 0.718476 0.49923
123 4 0.447628 0.714267 0.481131
124 1 0.467925 0.735984 0.499923
125 3 0.462078 0.734915 0.518022
126 4 0.469596 0.745606 0.497073
127 1 0.43986 0.73839 0.514248
128 3 0.433929 0.729302 0.528651
129 4 0.428416 0.740929 0.50955
130 1 0.438774 0.712797 0.520641
131 3 0.442783 0.708453 0.53797
132 4 0.439609 0.70558 0.512477
133 1 0.463331 0.715202 0.538894
134 3 0.459739 0.718811 0.556762
135 4 0.475109 0.718076 0.534504
136 1 0.44863 0.734915 0.551987
137 3 0.4356 0.730705 0.565234
138 4 0.445456 0.743936 0.54675
139 1 0.422319 0.719612 0.55399
140 3 0.41998 0.710257 0.568854
141 4 0.415971 0.716138 0.544054
142 1 0.440361 0.701169 0.566081
143 3 0.44153 0.701504 0.584104
144 4 0.450217 0.69696 0.560921
145 1 0.451554 0.717675 0.58626
146 3 0.43986 0.720481 0.601278
147 4 0.460742 0.724691 0.584181
148 1 0.421651 0.726228 0.590496
149 3 0.411209 0.718276 0.603127
150 4 0.414384 0.730237 0.582178
151 1 0.413632 0.700902 0.594347
152 3 0.414467 0.696291 0.611753
153 4 0.414885 0.692683 0.58703
154 1 0.436519 0.698563 0.614757
155 3 0.431006 0.702439 0.632086
156 4 0.449465 0.698096 0.612523
157 1 0.427832 0.720481 0.628081
158 3 0.413131 0.719813 0.640712
159 4 0.427999 0.729235 0.621457
160 1 0.397093 0.715403 0.62654
161 3 0.389075 0.708319 0.642098
162 4 0.390578 0.713665 0.615758
163 1 0.401019 0.692683 0.639402
164 3 0.400768 0.692416 0.658349
165 4 0.406448 0.684597 0.634396
166 1 0.420063 0.702573 0.659196
167 3 0.410374 0.707117 0.674677
168 4 0.430421 0.708052 0.656885
169 1 0.396091 0.719011 0.663894
170 3 0.381724 0.716873 0.677295
171 5 0.405613 0.675313 0.621834
172 1 0.375042 0.700635 0.669824
173 3 0.373705 0.694621 0.686306
174 4 0.370615 0.693084 0.663047
175 1 0.396592 0.690812 0.68854
176 3 0.394337 0.695222 0.7061
177 4 0.408787 0.687939 0.685536
178 1 0.399432 0.713932 0.702326
179 3 0.386736 0.716739 0.716805
180 4 0.403692 0.722553 0.697551
181 1 0.367357 0.716472 0.704251
182 3 0.357334 0.717675 0.720348
183 4 0.360257 0.716338 0.694624
184 1 0.357 0.700969 0.726741
185 3 0.358336 0.706716 0.74353
186 4 0.356331 0.691079 0.725971
187 1 0.382726 0.707317 0.742529
188 3 0.380889 0.720682 0.752465
189 4 0.394754 0.706047 0.738909
190 1 0.375961 0.731975 0.736445
191 3 0.36577 0.739125 0.75
192 4 0.375459 0.736585 0.725739
193 1 0.346057 0.729636 0.745148
194 3 0.342215 0.730772 0.763093
195 4 0.337788 0.724357 0.738755
196 1 0.354995 0.716071 0.768869
197 3 0.357334 0.725626 0.783041
198 4 0.360007 0.706716 0.770641
199 1 0.376712 0.734313 0.776032
200 3 0.370782 0.746141 0.787431
201 4 0.387153 0.737855 0.770256
202 1 0.354494 0.752222 0.773953
203 3 0.344303 0.755763 0.789356
204 4 0.346559 0.755162 0.764864
205 1 0.330521 0.740929 0.78797
206 3 0.326345 0.73565 0.804452
207 4 0.321751 0.736051 0.781346
208 1 0.343552 0.72429 0.805684
209 3 0.360925 0.718744 0.812847
210 4 0.339375 0.714333 0.804837
211 1 0.372787 0.735048 0.807994
212 3 0.373622 0.729769 0.826094
213 5 0.360675 0.686587 0.751515
214 1 0.396926 0.728433 0.826402
215 3 0.401938 0.717407 0.838339
216 4 0.39584 0.735984 0.83549
217 1 0.389993 0.703776 0.826017
218 3 0.400267 0.690745 0.821627
219 4 0.378049 0.699967 0.822628
220 1 0.414968 0.700434 0.807224
221 3 0.418059 0.684932 0.803219
222 4 0.419646 0.709121 0.801679
223 1 0.403943 0.683194 0.786198
224 3 0.411293 0.672636 0.7748
225 4 0.393585 0.685733 0.779036
226 1 0.432509 0.679385 0.774107
227 3 0.448714 0.679853 0.785582
228 4 0.436936 0.686201 0.765789
229 1 0.454227 0.661878 0.782116
230 3 0.464751 0.669362 0.7691
231 4 0.451888 0.652322 0.77842
232 1 0.483378 0.672235 0.782656
233 3 0.493652 0.677381 0.768253
234 4 0.491229 0.671367 0.792206
235 1 0.497494 0.660341 0.759627
236 3 0.494571 0.664684 0.741913
237 4 0.501754 0.650317 0.758626
238 1 0.47277 0.663882 0.743299
239 3 0.468593 0.677581 0.73529
240 4 0.461493 0.659472 0.744763
241 1 0.472102 0.687671 0.753081
242 3 0.481039 0.698162 0.74199
243 4 0.471433 0.690077 0.764864
244 1 0.502673 0.689208 0.743453
245 3 0.504678 0.695356 0.726124
246 4 0.512195 0.682325 0.745456
247 1 0.492065 0.682392 0.716266
248 3 0.486051 0.694955 0.705946
249 4 0.487805 0.673705 0.712492
250 1 0.466171 0.696425 0.717729
251 3 0.467675 0.710591 0.709181
252 4 0.456732 0.695556 0.726587
253 1 0.482125 0.718677 0.722582
254 3 0.490645 0.725827 0.707332
255 4 0.487387 0.722018 0.732825
256 1 0.503341 0.711794 0.7004
257 3 0.500334 0.717608 0.683534
258 4 0.511026 0.703776 0.700092
259 1 0.479452 0.710591 0.680068
260 3 0.478032 0.724023 0.669824
261 4 0.469178 0.705045 0.681685
262 1 0.471183 0.734781 0.686229
263 3 0.481624 0.746208 0.677141
264 4 0.465503 0.738189 0.696319
265 1 0.501838 0.741931 0.684997
266 3 0.507267 0.747344 0.668053
267 4 0.512195 0.738724 0.69162
268 1 0.504928 0.730505 0.65858
269 3 0.501086 0.739392 0.643638
270 4 0.503592 0.720414 0.65781
271 1 0.479703 0.740996 0.646257
272 3 0.480371 0.755496 0.638016
273 4 0.467006 0.739058 0.648722
274 1 0.486886 0.764116 0.657733
275 3 0.497745 0.773405 0.645795
276 4 0.488557 0.765987 0.669516
277 1 0.515286 0.759773 0.646103
278 3 0.519295 0.765987 0.629775
279 4 0.52272 0.751487 0.649107
280 1 0.504343 0.754561 0.619301
281 3 0.502923 0.766388 0.606824
282 4 0.49574 0.74701 0.617298
283 1 0.490645 0.777681 0.618376
284 3 0.50142 0.788306 0.609442
285 4 0.481457 0.781223 0.626386
286 1 0.519128 0.78844 0.623537
287 3 0.529987 0.791914 0.608056
288 4 0.52698 0.788039 0.633087
289 1 0.533996 0.77414 0.603204
290 3 0.533912 0.776946 0.584951
291 4 0.537588 0.764517 0.604051
292 1 0.510942 0.777213 0.583256
293 3 0.51303 0.789242 0.571165
294 4 0.498246 0.775075 0.585336
295 1 0.512112 0.802406 0.586568
296 3 0.524641 0.810758 0.575863
297 4 0.511276 0.807016 0.597351
298 1 0.543268 0.800802 0.580253
299 3 0.548279 0.803341 0.562307
300 4 0.551955 0.795322 0.585721
301 1 0.536168 0.789709 0.554837
302 3 0.533077 0.800067 0.540974
303 4 0.529987 0.781156 0.553373
304 1 0.515119 0.808019 0.550062
305 3 0.522302 0.821851 0.541667
306 4 0.505012 0.809823 0.557147
307 1 0.537003 0.825927 0.556916
308 3 0.549031 0.831808 0.544054
309 4 0.541096 0.827264 0.568084
310 1 0.557634 0.815102 0.539125
311 3 0.559138 0.821183 0.521642
312 4 0.561226 0.805012 0.539972
313 1 0.536919 0.817641 0.517021
314 3 0.534831 0.83154 0.508549
315 4 0.526813 0.811293 0.515558
316 1 0.529318 0.841497 0.526725
317 3 0.540762 0.853592 0.52041
318 4 0.525643 0.844437 0.537739
319 1 0.561226 0.845707 0.524261
320 3 0.567324 0.853859 0.50955
321 4 0.570748 0.84163 0.530345
322 1 0.560809 0.840628 0.495148
323 3 0.55705 0.852523 0.48398
324 4 0.558637 0.831273 0.490219
325 1 0.535667 0.855864 0.49122
326 3 0.534998 0.871166 0.489757
327 4 0.523388 0.854327 0.494301
328 1 0.551871 0.874507 0.504467
329 3 0.559973 0.88266 0.49122
330 4 0.555463 0.875376 0.515096
331 1 0.575927 0.867959 0.485906
332 3 0.590712 0.864016 0.497921
333 4 0.578851 0.876044 0.478974
334 1 0.598146 0.849315 0.486137
335 3 0.615102 0.850317 0.477896
336 4 0.591965 0.841296 0.491605
337 1 0.594053 0.836953 0.464572
338 3 0.586034 0.85132 0.461491
339 4 0.598313 0.83134 0.456023
340 1 0.566405 0.845038 0.452557
341 3 0.555546 0.831941 0.448937
342 4 0.56983 0.850317 0.443315
343 1 0.535082 0.839759 0.453712
344 3 0.519044 0.84143 0.442468
345 4 0.529485 0.84163 0.464341
346 1 0.5284 0.855129 0.430299
347 3 0.54143 0.844504 0.422212
348 4 0.53291 0.86435 0.427141
349 1 0.526729 0.838891 0.406654
350 3 0.528984 0.82272 0.408118
351 4 0.537588 0.839559 0.400416
352 1 0.509773 0.820381 0.420132
353 3 0.489642 0.822519 0.418053
354 4 0.508938 0.819512 0.432147
355 1 0.488473 0.80735 0.405037
356 3 0.478366 0.794587 0.404652
357 4 0.489977 0.806883 0.392868
358 1 0.490144 0.7857 0.420826
359 3 0.501671 0.792583 0.434535
360 4 0.495573 0.779352 0.412508
361 1 0.496158 0.779419 0.449476
362 3 0.512696 0.772269 0.443007
363 4 0.489559 0.773204 0.455407
364 1 0.525393 0.774808 0.460336
365 3 0.517959 0.761042 0.465342
366 4 0.529903 0.779619 0.470502
367 1 0.533495 0.750618 0.454636
368 3 0.531156 0.736719 0.46203
369 4 0.541514 0.748413 0.445856
370 1 0.541514 0.741263 0.480746
371 3 0.533912 0.740862 0.498152
372 4 0.553458 0.742466 0.48529
373 1 0.516706 0.753024 0.493145
374 3 0.507518 0.749282 0.508549
375 4 0.509439 0.759439 0.487215
376 1 0.503926 0.731975 0.504698
377 3 0.509272 0.729235 0.522797
378 4 0.498329 0.723689 0.498999
379 1 0.531072 0.722553 0.517175
380 3 0.536335 0.725359 0.533965
381 4 0.541931 0.720615 0.510705
382 1 0.534998 0.744404 0.531808
383 3 0.53266 0.744003 0.549754
384 4 0.532743 0.753558 0.528035
385 1 0.510525 0.737788 0.549368
386 3 0.514868 0.729502 0.564002
387 4 0.498162 0.736652 0.544978
388 1 0.52155 0.714467 0.552603
389 3 0.53433 0.711393 0.566929
390 4 0.523555 0.706916 0.544131
391 1 0.54995 0.724557 0.559766
392 3 0.551955 0.728099 0.577172
393 4 0.557384 0.729569 0.551987
394 1 0.536251 0.741931 0.577326
395 3 0.535416 0.736385 0.595425
396 4 0.52698 0.749148 0.575015
397 1 0.521634 0.722619 0.59142
398 3 0.531574 0.715536 0.604359
399 4 0.512362 0.717207 0.586106
400 1 0.548279 0.707785 0.591343
401 3 0.559973 0.707518 0.606439
402 4 0.554126 0.703709 0.581947
403 1 0.564651 0.726629 0.60459
404 3 0.562229 0.726696 0.622766
405 4 0.565152 0.73565 0.599122
406 1 0.539258 0.731507 0.62138
407 3 0.537588 0.726228 0.638247
408 4 0.526478 0.733445 0.61853
409 1 0.539175 0.707518 0.632471
410 3 0.549783 0.706047 0.647874
411 4 0.536335 0.699031 0.626925
412 1 0.570832 0.711326 0.637323
413 3 0.576345 0.717474 0.653959
414 5 0.559472 0.656862 0.59591
415 1 0.574257 0.734982 0.64695
416 3 0.56983 0.74153 0.663278
417 4 0.574841 0.743134 0.63971
418 1 0.548279 0.734046 0.664818
419 3 0.551537 0.732576 0.683534
420 4 0.536502 0.730772 0.662431
421 1 0.561894 0.715269 0.680992
422 3 0.563481 0.715937 0.699245
423 4 0.566906 0.706983 0.675062
424 1 0.583278 0.725493 0.699399
425 3 0.580772 0.734781 0.713956
426 4 0.594972 0.727965 0.694547
427 1 0.563314 0.744738 0.706639
428 3 0.55847 0.745673 0.724584
429 4 0.555713 0.750017 0.699476
430 1 0.544103 0.731574 0.727588
431 3 0.550618 0.72409 0.742298
432 4 0.533996 0.725626 0.725123
433 1 0.572753 0.721617 0.737369
434 3 0.580688 0.728032 0.752927
435 4 0.580772 0.716472 0.730823
436 1 0.581691 0.745406 0.745148
437 3 0.573087 0.753157 0.760089
438 4 0.584029 0.753291 0.737985
439 1 0.552539 0.747477 0.759242
440 3 0.551788 0.74133 0.775801
441 5 0.560474 0.69939 0.713983
442 1 0.559138 0.725092 0.771642
443 3 0.569746 0.722018 0.786969
444 4 0.558553 0.716071 0.766713
445 1 0.586619 0.733712 0.783811
446 3 0.588958 0.739926 0.799985
447 4 0.595473 0.739058 0.777495
448 1 0.568911 0.748279 0.802372
449 3 0.573171 0.743134 0.819778
450 4 0.559138 0.754962 0.799677
451 1 0.559472 0.728633 0.818854
452 3 0.55162 0.720147 0.804529
453 4 0.549616 0.731039 0.826248
454 1 0.556799 0.703107 0.812924
455 3 0.541179 0.693886 0.809843
456 4 0.563816 0.695824 0.817853
457 1 0.527147 0.703107 0.823937
458 3 0.510107 0.711326 0.822705
459 4 0.526562 0.703976 0.835952
460 1 0.515202 0.720214 0.804067
461 3 0.496575 0.720414 0.79829
462 4 0.521216 0.724557 0.794979
463 1 0.493485 0.702305 0.794979
464 3 0.480287 0.690812 0.801756
465 4 0.495991 0.696291 0.785505
466 1 0.489726 0.690144 0.82101
467 3 0.473522 0.681991 0.824399
468 4 0.49716 0.692215 0.830638
469 1 0.460408 0.697227 0.828558
470 3 0.442366 0.696024 0.820394
471 4 0.458904 0.705647 0.835182
472 1 0.448797 0.698029 0.800909
473 3 0.44412 0.705914 0.785582
474 5 0.455563 0.64153 0.745674
475 1 0.45431 0.722018 0.79236
476 3 0.473187 0.720815 0.786044
477 4 0.455981 0.729903 0.800062
478 1 0.467842 0.723488 0.765635
479 3 0.475192 0.733578 0.752388
480 4 0.463498 0.717942 0.756624
481 1 0.472436 0.749215 0.764787
482 3 0.483211 0.756565 0.752002
483 4 0.470765 0.75563 0.774338
484 1 0.503592 0.748212 0.759704
485 3 0.514701 0.761777 0.759627
486 4 0.510274 0.739793 0.76086
487 1 0.512529 0.764317 0.780499
488 3 0.503258 0.775476 0.770641
489 4 0.525059 0.761978 0.781038
490 1 0.511777 0.79011 0.782579
491 3 0.527731 0.788907 0.771026
492 4 0.512863 0.794654 0.79313
493 1 0.520631 0.802807 0.757394
494 3 0.537254 0.807818 0.766251
495 4 0.514617 0.811427 0.75362
496 1 0.550869 0.803341 0.75
497 3 0.56273 0.814634 0.742452
498 4 0.555045 0.793919 0.751925
499 1 0.559806 0.810157 0.723429
500 3 0.558303 0.820047 0.709335
501 4 0.560057 0.801938 0.716343
502 1 0.543101 0.831607 0.720194
503 3 0.548697 0.841831 0.707794
504 4 0.535165 0.83575 0.728435
505 1 0.567407 0.847177 0.717421
506 3 0.57292 0.847511 0.700092
507 4 0.575008 0.850852 0.7252
508 1 0.585951 0.831674 0.701248
509 3 0.585783 0.829602 0.683688
510 4 0.592967 0.82419 0.704945
511 1 0.563314 0.822653 0.68284
512 3 0.555463 0.834614 0.672982
513 5 0.56983 0.757851 0.632536
514 1 0.533745 0.833946 0.683148
515 3 0.527815 0.847778 0.674677
516 4 0.525142 0.832609 0.692314
517 1 0.544688 0.857334 0.685536
518 3 0.551453 0.860207 0.668284
519 4 0.547778 0.86161 0.69601
520 1 0.57409 0.86014 0.675524
521 3 0.577681 0.860474 0.656962
522 4 0.584531 0.858603 0.681839
523 1 0.576846 0.841497 0.655499
524 3 0.567741 0.831741 0.643407
525 4 0.583779 0.833278 0.658734
526 1 0.546776 0.839359 0.64695
527 3 0.539175 0.849382 0.634165
528 4 0.540177 0.833278 0.654652
529 1 0.528734 0.860608 0.648722
530 3 0.529987 0.871634 0.635012
531 4 0.52439 0.864217 0.659273
532 1 0.550952 0.878182 0.64102
533 3 0.550535 0.88012 0.622304
534 4 0.560725 0.880789 0.647643
535 1 0.561894 0.865553 0.615681
536 3 0.551119 0.866221 0.600816
537 4 0.571083 0.858269 0.616836
538 1 0.531657 0.857133 0.608903
539 3 0.523054 0.866154 0.595733
540 4 0.522553 0.852923 0.616759
541 1 0.520548 0.880789 0.609365
542 3 0.521801 0.888072 0.593269
543 4 0.520297 0.887471 0.618376
544 1 0.545941 0.89001 0.594193
545 3 0.542098 0.890678 0.576094
546 4 0.55847 0.889609 0.59658
547 1 0.540929 0.872436 0.572628
548 3 0.528483 0.876712 0.559689
549 4 0.541346 0.862412 0.574938
550 1 0.510274 0.877848 0.571935
551 3 0.50568 0.889141 0.558688
552 4 0.501671 0.876111 0.580561
553 1 0.513365 0.903575 0.569701
554 3 0.516455 0.910859 0.553758
555 4 0.517708 0.909522 0.578481
556 1 0.537504 0.902773 0.550678
557 3 0.532075 0.903909 0.533272
558 4 0.549365 0.898697 0.552295
559 1 0.519211 0.887337 0.534966
560 3 0.509105 0.896091 0.522643
561 4 0.516121 0.877314 0.538124
562 1 0.494404 0.903642 0.537046
563 3 0.492984 0.913331 0.522643
564 4 0.488139 0.907852 0.546288
565 1 0.51019 0.924624 0.529498
566 3 0.512696 0.928233 0.511553
567 4 0.519546 0.928901 0.536044
568 1 0.526228 0.91293 0.506932
569 3 0.518126 0.914467 0.489834
570 4 0.533161 0.904644 0.507779
571 1 0.500167 0.902974 0.495379
572 3 0.487972 0.911594 0.484596
573 4 0.494821 0.894621 0.499923
574 1 0.483712 0.925426 0.500077
575 3 0.482459 0.933912 0.48398
576 4 0.484213 0.93124 0.510397
577 1 0.506432 0.936585 0.482979
578 3 0.502923 0.93712 0.46488
579 4 0.518877 0.937521 0.485906
580 1 0.50426 0.918476 0.461953
581 3 0.491313 0.922085 0.44886
582 4 0.506515 0.908453 0.46411
583 1 0.472269 0.921417 0.461491
584 3 0.465085 0.932776 0.449707
585 4 0.463999 0.920013 0.470425
586 1 0.476111 0.947277 0.459566
587 3 0.478116 0.956298 0.444393
588 4 0.479786 0.953358 0.468577
589 1 0.499332 0.949482 0.439079
590 3 0.502172 0.934982 0.431531
591 4 0.511026 0.950618 0.442776
592 1 0.494153 0.941129 0.411506
593 3 0.510107 0.949215 0.405345
594 4 0.483461 0.943735 0.405961
595 1 0.516121 0.936051 0.39025
596 3 0.507016 0.944337 0.376386
597 4 0.518543 0.927431 0.384473
598 1 0.525142 0.956966 0.374846
599 3 0.531824 0.946943 0.361368
600 4 0.534163 0.963381 0.378004
601 1 0.519963 0.955496 0.345964
602 3 0.525643 0.970464 0.341574
603 4 0.507685 0.955229 0.341651
604 1 0.546108 0.96552 0.33264
605 3 0.548864 0.956164 0.317006
606 4 0.556966 0.963181 0.337569
607 1 0.549115 0.971133 0.303065
608 3 0.568326 0.965653 0.304529
609 4 0.548613 0.98002 0.296519
610 1 0.56866 0.960441 0.284196
611 3 0.559138 0.96699 0.269794
612 4 0.569495 0.950685 0.285428
613 1 0.57693 0.96572 0.255776
614 3 0.581858 0.957634 0.240758
615 4 0.584447 0.973806 0.252157
616 1 0.583946 0.941597 0.251694
617 3 0.602406 0.945807 0.247381
618 5 0.579853 0.868867 0.236268
619 1 0.604828 0.931908 0.233903
620 3 0.592549 0.922486 0.224584
621 4 0.614935 0.92723 0.239988
622 1 0.604577 0.924156 0.205869
623 3 0.606833 0.911727 0.195933
624 4 0.607835 0.930772 0.197551
625 1 0.619028 0.90157 0.211106
626 3 0.600067 0.896692 0.214649
627 4 0.628467 0.900768 0.219501
628 1 0.604327 0.87865 0.213725
629 3 0.612429 0.875643 0.230977
630 4 0.606415 0.870364 0.207178
631 1 0.591881 0.871367 0.239526
632 3 0.587788 0.856131 0.234365
633 4 0.584781 0.879653 0.24407
634 1 0.576011 0.852456 0.252619
635 3 0.563064 0.842098 0.243916
636 4 0.572001 0.853391 0.263786
637 1 0.547695 0.855997 0.239449
638 3 0.554795 0.870097 0.232748
639 4 0.536836 0.857066 0.246457
640 1 0.538506 0.872302 0.21719
641 3 0.520882 0.877381 0.210182
642 4 0.544103 0.870297 0.206023
643 1 0.507852 0.8713 0.226356
644 3 0.510358 0.885065 0.236291
645 4 0.503258 0.864551 0.233518
646 1 0.49006 0.892549 0.232055
647 3 0.497411 0.906448 0.236214
648 4 0.488557 0.891213 0.24407
649 1 0.502422 0.911193 0.215573
650 3 0.504009 0.92576 0.223275
651 4 0.506766 0.910925 0.204482
652 1 0.4787 0.91861 0.211953
653 3 0.472185 0.91273 0.228358
654 4 0.471433 0.926362 0.207717
655 1 0.455647 0.900902 0.219039
656 3 0.463832 0.88854 0.209797
657 4 0.443034 0.903508 0.21719
658 1 0.45289 0.874841 0.220733
659 3 0.441864 0.875576 0.204868
660 4 0.445456 0.869228 0.227896
661 1 0.454477 0.86161 0.19524
662 3 0.437604 0.85426 0.201633
663 4 0.464083 0.855596 0.192006
664 1 0.43134 0.847845 0.181069
665 3 0.425159 0.83281 0.180222
666 4 0.427915 0.850251 0.170441
667 1 0.445456 0.825326 0.18646
668 3 0.443034 0.811226 0.176833
669 4 0.439191 0.820782 0.195471
670 1 0.447628 0.818376 0.157964
671 3 0.465753 0.813298 0.161738
672 4 0.448045 0.82439 0.147951
673 1 0.462579 0.795456 0.153035
674 3 0.474357 0.80127 0.140173
675 4 0.45573 0.787771 0.147874
676 1 0.493318 0.791113 0.145795
677 3 0.496408 0.806749 0.148413
678 4 0.49432 0.788039 0.134319
679 1 0.518126 0.80568 0.154421
680 3 0.532075 0.81557 0.148799
681 4 0.526729 0.801069 0.161121
682 1 0.525142 0.816706 0.128081
683 3 0.515703 0.83007 0.134396
684 4 0.521801 0.814033 0.116759
685 1 0.53149 0.841697 0.127234
686 3 0.52414 0.848513 0.111368
687 4 0.543518 0.84564 0.12654
688 1 0.503675 0.85426 0.119686
689 3 0.510023 0.869161 0.123383
690 4 0.4929 0.852122 0.125924
691 1 0.497327 0.877247 0.10898
692 3 0.483044 0.878784 0.121149
693 4 0.494237 0.880053 0.0979667
694 1 0.504093 0.896024 0.116374
695 3 0.515453 0.890277 0.129698
696 4 0.503759 0.905981 0.11776
697 1 0.53408 0.886468 0.119147
698 3 0.537922 0.899766 0.129467
699 4 0.543518 0.885332 0.111137
700 1 0.549365 0.891012 0.145718
701 3 0.566238 0.897628 0.13894
702 4 0.555212 0.883127 0.15134
703 1 0.561143 0.914668 0.147489
704 3 0.565319 0.910925 0.164741
705 4 0.55304 0.922285 0.146334
706 1 0.584865 0.919345 0.166513
707 3 0.588958 0.932041 0.177834
708 4 0.596475 0.920815 0.162123
709 1 0.56724 0.934313 0.185767
710 3 0.579519 0.926896 0.197936
711 5 0.570915 0.875926 0.176019
712 1 0.575092 0.939392 0.213031
713 3 0.558303 0.940261 0.222582
714 4 0.580104 0.948881 0.215727
715 1 0.561477 0.924357 0.233133
716 3 0.576261 0.919947 0.243145
717 4 0.556883 0.91587 0.228743
718 1 0.564317 0.922419 0.261938
719 3 0.566071 0.908386 0.272027
720 4 0.560725 0.929769 0.269871
721 1 0.546776 0.900969 0.262554
722 3 0.541931 0.904243 0.280345
723 5 0.55162 0.830222 0.241647
724 1 0.524641 0.89148 0.281115
725 3 0.532158 0.876044 0.281038
726 4 0.511694 0.89001 0.27919
727 1 0.536669 0.875109 0.301371
728 3 0.527397 0.865085 0.312693
729 4 0.547277 0.877648 0.307224
730 1 0.509439 0.876044 0.316312
731 3 0.501754 0.886936 0.304452
732 4 0.51161 0.877715 0.327634
733 1 0.479619 0.885332 0.312847
734 3 0.47302 0.8856 0.329791
735 4 0.470682 0.879385 0.305992
736 1 0.469679 0.903508 0.3311
737 3 0.450134 0.900702 0.329791
738 4 0.4716 0.913933 0.329482
739 1 0.447294 0.90137 0.351356
740 3 0.454644 0.913598 0.361214
741 4 0.449131 0.89275 0.358364
742 1 0.435516 0.921083 0.368145
743 3 0.416221 0.916539 0.369763
744 4 0.436769 0.93017 0.362831
745 1 0.415971 0.919078 0.390173
746 3 0.426245 0.929101 0.401417
747 4 0.416305 0.909322 0.394871
748 1 0.408286 0.93271 0.413894
749 3 0.403525 0.921417 0.426448
750 4 0.396676 0.936786 0.413817
751 1 0.424992 0.921684 0.435459
752 3 0.43443 0.922486 0.452557
753 4 0.435516 0.918543 0.430068
754 1 0.422235 0.936118 0.459643
755 3 0.414801 0.934915 0.476047
756 4 0.419896 0.946007 0.458641
757 1 0.398179 0.922285 0.47081
758 3 0.400852 0.915737 0.487831
759 4 0.390244 0.916806 0.463031
760 1 0.418727 0.905246 0.479744
761 3 0.42591 0.90725 0.496842
762 4 0.427247 0.90284 0.471734
763 1 0.434681 0.924156 0.493762
764 3 0.430505 0.927898 0.511322
765 4 0.43986 0.932776 0.487754
766 1 0.407534 0.929235 0.509011
767 3 0.405028 0.92155 0.525108
768 4 0.396341 0.93271 0.504698
769 1 0.405947 0.904444 0.51525
770 3 0.415469 0.899232 0.530499
771 4 0.40294 0.897294 0.507471
772 1 0.43702 0.904644 0.524954
773 3 0.439191 0.908453 0.543207
774 4 0.446793 0.906047 0.517175
775 1 0.430421 0.926829 0.53951
776 3 0.426579 0.925226 0.557224
777 5 0.431089 0.871032 0.506396
778 1 0.406114 0.91714 0.555376
779 3 0.411126 0.909589 0.571242
780 4 0.394671 0.915336 0.550755
781 1 0.424658 0.896158 0.561845
782 3 0.435683 0.897561 0.576941
783 4 0.426662 0.888941 0.553835
784 1 0.449215 0.911126 0.569316
785 3 0.448296 0.917006 0.587184
786 4 0.456148 0.91734 0.561537
787 1 0.428249 0.925292 0.58472
788 3 0.424741 0.921617 0.602357
789 4 0.418727 0.931574 0.580561
790 1 0.414718 0.90578 0.598891
791 3 0.423906 0.900635 0.614217
792 4 0.407701 0.898363 0.594655
793 1 0.444203 0.897494 0.60536
794 3 0.4498 0.900434 0.622612
795 4 0.453391 0.896559 0.596811
796 1 0.453308 0.91861 0.620071
797 3 0.449215 0.920347 0.638324
798 4 0.456148 0.92723 0.615681
799 1 0.426746 0.920548 0.637015
800 3 0.429085 0.914935 0.653728
801 4 0.414801 0.92155 0.633241
802 1 0.4285 0.896759 0.647412
803 3 0.443034 0.890545 0.659042
804 4 0.424741 0.888674 0.640404
805 1 0.461326 0.897561 0.648259
806 3 0.471767 0.89863 0.663894
807 4 0.46851 0.900768 0.639094
808 1 0.461995 0.914601 0.669824
809 3 0.467758 0.910658 0.686229
810 4 0.455312 0.923488 0.669131
811 1 0.449382 0.902372 0.693931
812 3 0.459405 0.891881 0.703789
813 4 0.436686 0.900234 0.694778
814 1 0.467173 0.883127 0.685536
815 3 0.485048 0.882058 0.694624
816 4 0.466756 0.878383 0.674908
817 1 0.493234 0.898229 0.687693
818 3 0.501336 0.898162 0.705715
819 4 0.494487 0.906448 0.680299
820 1 0.484881 0.907317 0.714803
821 3 0.488557 0.898229 0.729282
822 4 0.474858 0.913064 0.717498
823 1 0.478533 0.882526 0.722119
824 3 0.493568 0.87444 0.729975
825 4 0.470849 0.876044 0.716651
826 1 0.507685 0.875643 0.712877
827 3 0.523806 0.877247 0.724738
828 4 0.512947 0.876646 0.702018
829 1 0.519128 0.895089 0.728666
830 3 0.524641 0.890946 0.745918
831 4 0.516121 0.904978 0.727434
832 1 0.502589 0.888941 0.753312
833 3 0.507434 0.877514 0.765096
834 4 0.48981 0.890411 0.755776
835 1 0.508938 0.863749 0.749769
836 3 0.520548 0.85426 0.758395
837 4 0.507852 0.858403 0.739449
838 1 0.540344 0.864818 0.753851
839 3 0.5502 0.87424 0.765635
840 4 0.546442 0.859272 0.745533
841 1 0.554043 0.888607 0.751155
842 3 0.556799 0.897828 0.766328
843 4 0.551286 0.895155 0.742298
844 1 0.534414 0.900301 0.771026
845 3 0.517374 0.897294 0.780961
846 4 0.527648 0.908253 0.766097
847 1 0.526478 0.881724 0.789125
848 3 0.515286 0.884531 0.804683
849 4 0.532409 0.871968 0.788586
850 1 0.53291 0.894019 0.813848
851 3 0.521634 0.906983 0.808611
852 4 0.544855 0.897895 0.816543
853 1 0.509105 0.904845 0.828558
854 3 0.497912 0.90705 0.813617
855 4 0.511777 0.915068 0.829251
856 1 0.479703 0.896625 0.820857
857 3 0.466505 0.90137 0.833564
858 4 0.477865 0.886335 0.82024
859 1 0.451387 0.907317 0.818161
860 3 0.443785 0.899098 0.803373
861 4 0.449967 0.91714 0.814079
862 1 0.43017 0.888406 0.816389
863 3 0.420815 0.885332 0.800678
864 4 0.424825 0.884464 0.826017
865 1 0.409205 0.902105 0.801371
866 3 0.408704 0.901169 0.783349
867 4 0.403859 0.910658 0.806223
868 1 0.427665 0.910591 0.779344
869 3 0.431089 0.900568 0.765404
870 4 0.436184 0.918209 0.779652
871 1 0.440695 0.88727 0.776263
872 3 0.429753 0.879586 0.764017
873 4 0.447127 0.881189 0.783734
874 1 0.410875 0.878383 0.775955
875 3 0.400685 0.877648 0.760474
876 5 0.422152 0.811504 0.729378
877 1 0.402355 0.895155 0.755314
878 3 0.404444 0.889141 0.73837
879 4 0.402021 0.90558 0.756624
880 1 0.42733 0.888674 0.73837
881 3 0.42449 0.877715 0.725971
882 4 0.439693 0.89021 0.741066
883 1 0.419896 0.864283 0.740835
884 3 0.407117 0.857267 0.729513
885 4 0.419061 0.858938 0.751694
886 1 0.389659 0.868092 0.733903
887 3 0.386903 0.86435 0.716266
888 4 0.381975 0.874841 0.739295
889 1 0.398931 0.879118 0.708179
890 3 0.403191 0.86856 0.694162
891 4 0.403525 0.888139 0.706793
892 1 0.4214 0.860274 0.70402
893 3 0.415135 0.847377 0.693007
894 4 0.430588 0.858737 0.712261
895 1 0.400267 0.840695 0.707101
896 3 0.390077 0.835216 0.69216
897 4 0.393836 0.838757 0.717575
898 1 0.379636 0.85279 0.690234
899 3 0.379469 0.849716 0.672289
900 4 0.375459 0.862947 0.693315
901 1 0.401353 0.855596 0.667976
902 3 0.40578 0.843568 0.6565
903 4 0.411293 0.861544 0.667283
904 1 0.405279 0.829937 0.671134
905 3 0.39584 0.821383 0.65781
906 5 0.404611 0.764537 0.63012
907 1 0.37429 0.82693 0.663586
908 3 0.370949 0.826796 0.645102
909 4 0.363348 0.830672 0.668669
910 1 0.377631 0.843902 0.642252
911 3 0.381808 0.837354 0.625924
912 4 0.379552 0.853859 0.643792
913 1 0.403608 0.832543 0.63093
914 3 0.401103 0.819646 0.619301
915 4 0.415553 0.83281 0.636168
916 1 0.388239 0.80989 0.633318
917 3 0.378633 0.804811 0.618299