LAMMPS protain data file

        2694  atoms
        3586  bonds
           0  angles
           0  dihedrals
           0  impropers

           5  atom types
           5  bond types
           0  angle types
           0  dihedral types
           0  improper types

-200.0	200.0	xlo xhi
-200.0	200.0	ylo yhi
-200.0	200.0	zlo zhi

Masses

           1	27.0
           2	14.0
           3	28.0
           4	60.0
           5	60.0

Atoms

           1	1	1	1	0.0	2.466	21.551003	0.095
           2	1	1	3	0.0	0.374	20.421	0.053
           3	1	1	4	0.0	2.345	22.522	1.269
           4	1	2	1	0.0	-0.543	21.722	-2.17
           5	1	2	3	0.0	-1.441	19.572	-2.815
           6	1	2	4	0.0	-0.914	22.873	-3.099
           7	1	3	1	0.0	0.75	18.836	-4.273
           8	1	3	3	0.0	0.381	16.611	-3.499
           9	1	3	4	0.0	1.982	18.86	-5.184
          10	1	4	1	0.0	1.674	16.96	-1.12
          11	1	4	3	0.0	0.008	15.607	-0.074
          12	1	4	4	0.0	2.76	17.388	-0.139
          13	1	5	1	0.0	-1.743	17.678	0.336
          14	1	5	3	0.0	-3.388	15.985	-0.06
          15	1	5	4	0.0	-2.351	19.059	0.58
          16	1	6	1	0.0	-3.427	16.323	-2.747
          17	1	6	3	0.0	-3.73	13.973	-3.053
          18	1	6	4	0.0	-3.459	16.976	-4.124
          19	1	7	1	0.0	-1.094	13.326	-2.853
          20	1	7	3	0.0	-1.819	11.351001	-1.715
          21	1	7	4	0.0	0.426	13.358	-3.011
          22	1	8	1	0.0	-1.781	12.479	0.781
          23	1	8	3	0.0	-3.755	11.182999	1.256
          24	1	8	4	0.0	-1.291	13.277001	2.008
          25	1	9	1	0.0	-5.4990005	12.961999	0.176
          26	1	9	3	0.0	-6.6710005	10.973	-0.411
          27	1	9	4	0.0	-6.202	14.23	-0.284
          28	1	10	1	0.0	-5.39	10.651	-2.831
          29	1	10	3	0.0	-5.555	8.286	-2.464
          30	1	10	4	0.0	-4.676	10.923	-4.15
          31	1	11	1	0.0	-3.341	8.145	-0.84
          32	1	11	3	0.0	-4.614	6.457	0.294
          33	1	11	4	0.0	-1.969	8.397	-0.252
          34	1	12	1	0.0	-5.813	8.128	2.046
          35	1	12	3	0.0	-7.819	6.85	2.015
          36	1	12	4	0.0	-6.038	9.271	3.056
          37	1	13	1	0.0	-8.698	7.782	-0.389
          38	1	13	3	0.0	-9.376	5.504	-0.742
          39	1	13	4	0.0	-9.082	8.771	-1.509
          40	1	14	1	0.0	-7.072	4.708	-1.91
          41	1	14	3	0.0	-7.306	2.591	-0.837
          42	1	14	4	0.0	-5.833	4.68	-2.791
          43	1	15	1	0.0	-6.273	3.412	1.566
          44	1	15	3	0.0	-7.873	1.976	2.586
          45	1	15	4	0.0	-5.379	4.115	2.591
          46	1	16	1	0.0	-9.894	3.82	2.605
          47	1	16	3	0.0	-11.356	2.004	2.058
          48	1	16	4	0.0	-10.641	5.158	2.788
          49	1	17	1	0.0	-10.864	2.061	-0.599
          50	1	17	3	0.0	-11.156	-0.315	-0.536
          51	1	17	5	0.0	-10.32	1.9176998	-1.5976363
          52	1	18	1	0.0	-8.587	-0.838	0.252
          53	1	18	3	0.0	-9.388	-2.616	1.655
          54	1	18	4	0.0	-7.068	-0.786	0.299
          55	1	19	1	0.0	-10.029	-0.991	3.748
          56	1	19	3	0.0	-12.008	-2.222	4.252
          57	1	19	4	0.0	-9.9	0.089	4.82
          58	1	20	1	0.0	-13.524	-1.055	2.292
          59	1	20	3	0.0	-14.443001	-3.251	1.93
          60	1	20	4	0.0	-14.157999	0.036	1.41
          61	1	21	1	0.0	-12.648999	-3.966	0.027
          62	1	21	3	0.0	-12.768	-6.2490005	0.775
          63	1	21	4	0.0	-11.712999	-3.929	-1.172
          64	1	22	1	0.0	-10.917	-6.011	2.717
          65	1	22	3	0.0	-12.219	-7.14	4.384
          66	1	22	4	0.0	-9.425	-5.9	2.935
          67	1	23	1	0.0	-12.043	-5.103	6.2
          68	1	23	3	0.0	-14.243	-4.535	5.347
          69	1	23	4	0.0	-11.279	-4.11	7.051
          70	1	24	1	0.0	-15.465	-4.836	7.822
          71	1	24	3	0.0	-16.839	-3.577	9.285
          72	1	24	4	0.0	-16.022	-6.126	8.431
          73	1	25	1	0.0	-14.914	-1.739	9.902
          74	1	25	3	0.0	-16.093	-0.623	8.099
          75	1	25	4	0.0	-13.532	-1.178	10.305
          76	1	26	1	0.0	-17.098	1.341	9.715
          77	1	26	3	0.0	-15.197	2.816	9.494
          78	1	26	4	0.0	-17.812	1.942	10.924
          79	1	27	1	0.0	-16.02	3.817	7.055
          80	1	27	3	0.0	-15.912	6.1649995	6.674
          81	1	27	4	0.0	-16.107	3.415	5.574
          82	1	28	1	0.0	-18.037	6.804	8.236
          83	1	28	3	0.0	-16.869	8.831	8.652
          84	1	28	4	0.0	-19.42	6.766	8.842
          85	1	29	1	0.0	-15.666	8.173	10.915
          86	1	29	3	0.0	-13.697	9.39	10.368
          87	1	29	4	0.0	-15.503	7.538	12.311
          88	1	30	1	0.0	-12.664	7.506	8.707
          89	1	30	3	0.0	-11.964	9.412	7.4210005
          90	1	30	4	0.0	-12.237999	6.143	8.133
          91	1	31	1	0.0	-14.240999	9.551	5.944
          92	1	31	3	0.0	-14.159	11.929	5.984
          93	1	31	4	0.0	-15.452	9.156	5.119
          94	1	32	1	0.0	-15.118001	12.188	8.513
          95	1	32	3	0.0	-13.617	14.013999	8.835
          96	1	32	4	0.0	-15.983001	11.991	9.75
          97	1	33	1	0.0	-11.5	12.455	9.629
          98	1	33	3	0.0	-10.139	14.007	8.41
          99	1	33	4	0.0	-10.712	11.365	10.391
         100	1	34	1	0.0	-10.275	12.65	6.067
         101	1	34	3	0.0	-10.204	14.831	5.065
         102	1	34	4	0.0	-10.33	11.503	5.035
         103	1	35	1	0.0	-12.881999	15.276	5.222
         104	1	35	3	0.0	-12.332999	17.565	5.636
         105	1	35	4	0.0	-14.396999	15.050999	5.162
         106	1	36	1	0.0	-12.045	17.286	8.326
         107	1	36	3	0.0	-10.312	18.897	8.382
         108	1	36	4	0.0	-12.295	16.845	9.772
         109	1	37	1	0.0	-8.339	17.189	7.604
         110	1	37	3	0.0	-7.548	19.01	6.239
         111	1	37	4	0.0	-7.396	15.955	7.726
         112	1	38	1	0.0	-8.38	17.892	3.88
         113	1	38	3	0.0	-9.348	19.337	2.26
         114	1	38	4	0.0	-8.151	16.777	2.877
         115	1	39	1	0.0	-11.576	19.98	3.846
         116	1	39	3	0.0	-12.577	20.44	1.705
         117	1	39	4	0.0	-11.084	21.429	3.787
         118	1	40	1	0.0	-13.314001	17.818	1.268
         119	1	40	3	0.0	-15.08	17.048	2.682
         120	1	40	4	0.0	-12.705	16.526	0.737
         121	1	41	1	0.0	-17.096	17.811	0.964
         122	1	41	3	0.0	-18.568	16.748	-0.609
         123	1	41	4	0.0	-17.839	19.095	0.608
         124	1	42	1	0.0	-17.333	14.282	-0.408
         125	1	42	3	0.0	-15.801	12.826	0.704
         126	1	42	4	0.0	-16.612	14.185001	-1.774
         127	1	43	1	0.0	-17.77	11.179	1.718
         128	1	43	3	0.0	-17.525	8.83	1.515
         129	1	43	5	0.0	-17.993	10.15866	2.8479161
         130	1	44	1	0.0	-18.389	8.71	-1.096
         131	1	44	3	0.0	-17.608	7.845	-3.155
         132	1	44	5	0.0	-18.278	7.096582	-1.1170818
         133	1	45	1	0.0	-15.266	9.27	-3.117
         134	1	45	3	0.0	-14.004	7.497	-4.087
         135	1	45	4	0.0	-14.35	10.489	-2.999
         136	1	46	1	0.0	-13.493	6.221	-1.713
         137	1	46	3	0.0	-13.568	3.891	-2.17
         138	1	46	4	0.0	-13.038999	6.086	-0.254
         139	1	47	1	0.0	-16.163	3.821	-2.913
         140	1	47	3	0.0	-15.561	4.206	-5.221
         141	1	47	4	0.0	-17.665	4.068	-2.934
         142	1	48	1	0.0	-15.092	1.542	-5.7170005
         143	1	48	3	0.0	-17.424	1.35	-6.235
         144	1	48	4	0.0	-14.495	0.128	-5.535
         145	1	49	1	0.0	-17.14	1.411	-8.901
         146	1	49	3	0.0	-16.9	-0.971	-8.73
         147	1	49	4	0.0	-16.533	1.892	-10.223
         148	1	50	1	0.0	-19.517	-1.469	-9.417
         149	1	50	3	0.0	-19.41	-3.394	-10.812
         150	1	50	4	0.0	-21.035	-1.35	-9.303
         151	1	51	1	0.0	-18.17	-2.19	-12.869001
         152	1	51	3	0.0	-16.86	-4.163	-13.229
         153	1	51	5	0.0	-18.589	-2.1682854	-13.284358
         154	1	52	1	0.0	-14.682001	-3.235	-11.825
         155	1	52	3	0.0	-15.236	-3.862	-9.58
         156	1	52	4	0.0	-13.528999	-2.274	-11.564
         157	1	53	1	0.0	-14.715	-6.549	-9.967
         158	1	53	3	0.0	-13.434001	-6.8750005	-7.989
         159	1	53	4	0.0	-15.19	-7.832	-10.631
         160	1	54	1	0.0	-11.032	-7.2230005	-9.297
         161	1	54	3	0.0	-8.991	-6.117	-9.982
         162	1	54	4	0.0	-10.435	-8.451	-9.955
         163	1	55	1	0.0	-9.635	-3.745	-8.824
         164	1	55	3	0.0	-7.2969995	-3.454	-8.476
         165	1	55	4	0.0	-10.418	-2.506	-8.328
         166	1	56	1	0.0	-7.03	-4.876	-6.241
         167	1	56	3	0.0	-4.93	-5.7170005	-6.951
         168	1	56	4	0.0	-7.399	-5.482	-4.877
         169	1	57	1	0.0	-5.976	-7.584	-8.646
         170	1	57	3	0.0	-4.126	-7.0450006	-10.071
         171	1	57	4	0.0	-6.8350005	-8.696	-9.235
         172	1	58	1	0.0	-5.4010005	-4.952	-11.306
         173	1	58	3	0.0	-3.271	-3.87	-11.341
         174	1	58	4	0.0	-6.46	-4.083	-11.952
         175	1	59	1	0.0	-3.47	-2.891	-8.782
         176	1	59	3	0.0	-1.098	-3.264	-8.681
         177	1	59	4	0.0	-4.015	-2.303	-7.482
         178	1	60	1	0.0	-1.315	-5.878	-7.868
         179	1	60	3	0.0	0.703	-6.186	-9.136
         180	1	60	4	0.0	-1.817	-7.146	-7.152
         181	1	61	1	0.0	-0.547	-6.656	-11.515
         182	1	61	3	0.0	1.342	-5.528	-12.471001
         183	1	61	4	0.0	-1.574	-7.132	-12.555
         184	1	62	1	0.0	0.375	-3.014	-12.089
         185	1	62	3	0.0	2.684	-2.467	-11.694
         186	1	62	4	0.0	-0.596	-1.805	-11.981
         187	1	63	1	0.0	2.631	-3.053	-9.03
         188	1	63	3	0.0	4.907	-3.773	-9.352
         189	1	63	4	0.0	2.171	-3.161	-7.586
         190	1	64	1	0.0	4.251	-6.299	-10.234
         191	1	64	3	0.0	6.23	-5.944	-11.548
         192	1	64	4	0.0	3.535	-7.64	-10.417
         193	1	65	1	0.0	4.925	-4.914	-13.707001
         194	1	65	3	0.0	6.949	-3.637	-13.956
         195	1	65	4	0.0	3.873	-4.662	-14.785
         196	1	66	1	0.0	6.161	-1.635	-12.295
         197	1	66	3	0.0	8.473	-1.426	-11.697
         198	1	66	4	0.0	5.304	-0.628	-11.519
         199	1	67	1	0.0	8.426	-3.418	-9.809
         200	1	67	3	0.0	10.654	-3.845	-10.586
         201	1	67	4	0.0	7.94	-4.262	-8.638
         202	1	68	1	0.0	9.931	-5.891	-12.231
         203	1	68	3	0.0	11.784	-5.046	-13.53
         204	1	68	4	0.0	9.226	-7.142	-12.787001
         205	1	69	1	0.0	10.279	-3.444	-15.092
         206	1	69	3	0.0	12.240999	-2.083	-15.187
         207	1	69	5	0.0	9.748	-3.107956	-15.447202
         208	1	70	1	0.0	11.659	-0.662	-12.979
         209	1	70	3	0.0	14.016	-0.572	-12.641
         210	1	70	5	0.0	10.811	0.687167	-12.002999
         211	1	71	1	0.0	14.15	-2.817	-11.142999
         212	1	71	3	0.0	16.285	-3.351	-12.078001
         213	1	71	4	0.0	13.842001	-3.833	-10.058
         214	1	72	1	0.0	15.326999	-4.424	-14.394001
         215	1	72	3	0.0	17.156	-3.3	-15.446999
         216	1	72	4	0.0	14.503	-5.288	-15.361
         217	1	73	1	0.0	15.909001	-0.9	-15.716
         218	1	73	3	0.0	18.0	0.175	-15.306
         219	1	73	4	0.0	14.864	0.184	-15.956
         220	1	74	1	0.0	17.916	-0.181	-12.589
         221	1	74	3	0.0	20.278	-0.58	-12.802001
         222	1	74	4	0.0	17.404	-0.198	-11.136
         223	1	75	1	0.0	20.023	-3.292	-13.188
         224	1	75	3	0.0	21.932	-2.984	-14.597
         225	1	75	4	0.0	19.508	-4.738	-13.104
         226	1	76	1	0.0	20.534	-2.317	-16.817
         227	1	76	3	0.0	22.339	-0.844	-17.365
         228	1	76	4	0.0	19.475	-2.237	-17.908
         229	1	77	1	0.0	21.500002	1.192	-15.814001
         230	1	77	3	0.0	23.826	1.678	-15.457
         231	1	77	4	0.0	20.612	2.211	-15.1
         232	1	78	1	0.0	24.091	0.044	-13.296
         233	1	78	3	0.0	26.261	-0.505	-14.170001
         234	1	78	4	0.0	23.793999	-0.571	-11.917
         235	1	79	1	0.0	25.455	-2.743	-15.475
         236	1	79	3	0.0	27.049002	-2.642	-17.242
         237	1	79	4	0.0	24.757	-4.054	-15.732
         238	1	80	1	0.0	25.752	-0.699	-18.672
         239	1	80	3	0.0	27.502	0.831	-19.225
         240	1	80	4	0.0	24.571001	-0.565	-19.655
         241	1	81	1	0.0	26.558998	2.886	-17.683
         242	1	81	3	0.0	27.952	2.25	-15.847
         243	1	81	4	0.0	25.582	3.869	-17.045
         244	1	82	1	0.0	30.167	3.474	-16.843
         245	1	82	3	0.0	31.12	4.208	-14.782
         246	1	82	4	0.0	31.260002	3.781	-17.855
         247	1	83	1	0.0	29.464	6.363	-14.489001
         248	1	83	3	0.0	28.809	6.416	-12.215
         249	1	83	4	0.0	28.886002	7.721	-14.921
         250	1	84	1	0.0	27.272	4.133	-12.339001
         251	1	84	3	0.0	27.425	2.086	-11.117
         252	1	84	4	0.0	25.849998	3.728	-12.744
         253	1	85	1	0.0	30.086	1.645	-11.719
         254	1	85	3	0.0	31.979	2.602	-10.583
         255	1	85	4	0.0	31.030998	1.166	-12.826999
         256	1	86	1	0.0	30.969002	2.114	-8.061
         257	1	86	3	0.0	29.530003	0.33	-7.293
         258	1	86	4	0.0	30.89	3.599	-7.635
         259	1	87	1	0.0	30.454	0.42	-4.73
         260	1	87	3	0.0	28.233002	-0.293	-4.132
         261	1	87	4	0.0	31.370003	0.582	-3.507
         262	1	88	1	0.0	27.267	2.256	-3.789
         263	1	88	3	0.0	25.175	1.235	-4.389
         264	1	88	4	0.0	27.154	3.752	-3.53
         265	1	89	1	0.0	25.499	1.564	-7.068
         266	1	89	3	0.0	24.448997	-0.488	-7.692
         267	1	89	4	0.0	25.799	2.221	-8.416
         268	1	90	1	0.0	26.406	-2.098	-6.7890005
         269	1	90	3	0.0	24.746	-3.564	-5.852
         270	1	90	4	0.0	27.796999	-2.732	-6.586
         271	1	91	1	0.0	24.445	-2.17	-3.549
         272	1	91	3	0.0	22.112	-2.586	-3.73
         273	1	91	4	0.0	24.756	-1.426	-2.264
         274	1	92	1	0.0	21.606	-0.457	-5.372
         275	1	92	3	0.0	20.006	-1.749	-6.589
         276	1	92	4	0.0	21.609	0.948	-5.959
         277	1	93	1	0.0	21.886002	-3.072	-8.104
         278	1	93	3	0.0	20.45	-4.995	-7.859
         279	1	93	4	0.0	23.118	-3.351	-8.959
         280	1	94	1	0.0	21.631002	-5.868	-5.55
         281	1	94	3	0.0	19.467	-6.577	-4.765
         282	1	94	4	0.0	22.665998	-6.272	-4.508
         283	1	95	1	0.0	18.723	-4.066	-3.921
         284	1	95	3	0.0	16.511	-4.57	-4.72
         285	1	95	4	0.0	18.781	-2.668	-3.292
         286	1	96	1	0.0	17.046	-3.893	-7.3090005
         287	1	96	3	0.0	15.669	-5.728	-8.035
         288	1	96	4	0.0	17.539	-3.145	-8.533
         289	1	97	1	0.0	17.642	-7.621	-7.7
         290	1	97	3	0.0	15.823	-9.008	-6.94
         291	1	97	4	0.0	18.998	-8.346	-7.706
         292	1	98	1	0.0	15.987	-8.208	-4.336
         293	1	98	3	0.0	13.607	-8.504	-4.316
         294	1	98	4	0.0	16.518	-7.739	-2.978
         295	1	99	1	0.0	13.03	-6.005	-5.263
         296	1	99	3	0.0	11.218	-6.863	-6.537
         297	1	99	4	0.0	13.052	-4.48	-5.434
         298	1	100	1	0.0	12.749	-7.722	-8.611
         299	1	100	3	0.0	11.258	-9.6	-8.682
         300	1	100	4	0.0	13.819	-7.832	-9.684
         301	1	101	1	0.0	12.563001	-11.059	-6.8090005
         302	1	101	3	0.0	10.645	-11.976	-5.728
         303	1	101	4	0.0	13.714	-11.791	-6.117
         304	1	102	1	0.0	9.875	-9.634	-4.554
         305	1	102	3	0.0	7.722	-10.319	-5.349
         306	1	102	4	0.0	9.92	-8.349	-3.696
         307	1	103	1	0.0	7.822	-8.82	-7.609
         308	1	103	3	0.0	6.787	-10.252	-9.23
         309	1	103	5	0.0	8.857	-7.4419346	-7.560204
         310	1	104	1	0.0	8.794	-12.145001	-9.18
         311	1	104	3	0.0	7.709	-14.251	-9.031
         312	1	104	4	0.0	10.211	-12.368	-9.719
         313	1	105	1	0.0	8.328	-14.687	-6.385
         314	1	105	3	0.0	6.504	-15.349	-4.995
         315	1	105	4	0.0	9.609	-15.281	-5.775
         316	1	106	1	0.0	6.474	-13.083	-3.477
         317	1	106	3	0.0	4.076	-13.063001	-3.472
         318	1	106	4	0.0	7.1449995	-12.122	-2.482
         319	1	107	1	0.0	3.849	-10.936999	-5.154
         320	1	107	3	0.0	1.697	-11.633001	-5.822
         321	1	107	4	0.0	4.12	-9.585	-5.8350005
         322	1	108	1	0.0	2.402	-13.54	-7.524
         323	1	108	3	0.0	0.599	-14.868	-6.716
         324	1	108	4	0.0	3.205	-14.257	-8.612
         325	1	109	1	0.0	1.924	-15.864	-4.573
         326	1	109	3	0.0	-0.051	-15.674	-3.24
         327	1	109	4	0.0	3.0	-16.554	-3.747
         328	1	110	1	0.0	0.252	-12.991	-2.75
         329	1	110	3	0.0	-2.117	-12.712	-3.053
         330	1	110	4	0.0	0.878	-11.652	-2.356
         331	1	111	1	0.0	-1.956	-12.577	-5.78
         332	1	111	3	0.0	-4.019	-13.802001	-5.76
         333	1	111	4	0.0	-1.503	-12.236	-7.19
         334	1	112	1	0.0	-2.827	-16.249	-5.623
         335	1	112	3	0.0	-4.523	-17.113	-4.19
         336	1	112	4	0.0	-1.896	-17.424	-5.882
         337	1	113	1	0.0	-3.589	-15.936999	-1.928
         338	1	113	3	0.0	-5.715	-15.306	-1.069
         339	1	113	4	0.0	-2.591	-15.574	-0.832
         340	1	114	1	0.0	-5.972	-13.067	-2.637
         341	1	114	3	0.0	-8.278	-13.466	-3.13
         342	1	114	4	0.0	-5.515	-11.662	-3.05
         343	1	115	1	0.0	-7.821	-14.641	-5.5729995
         344	1	115	3	0.0	-9.521	-16.283	-5.813
         345	1	115	4	0.0	-7.201	-14.928	-6.943
         346	1	116	1	0.0	-9.026	-17.524	-3.376
         347	1	116	3	0.0	-9.577	-18.073	-1.103
         348	1	116	4	0.0	-8.173	-18.797	-3.363
         349	1	117	1	0.0	-10.306	-15.442	-0.43
         350	1	117	3	0.0	-9.871	-16.28	1.766
         351	1	117	4	0.0	-11.737001	-15.906001	-0.196
         352	1	118	1	0.0	-7.067	-15.876	1.515
         353	1	118	3	0.0	-6.6310005	-17.665	3.062
         354	1	118	4	0.0	-7.1570005	-14.949001	2.738
         355	1	119	1	0.0	-7.209	-19.642	1.177
         356	1	119	3	0.0	-6.0130005	-19.753	-0.881
         357	1	119	4	0.0	-8.519	-20.375	0.798
         358	1	120	1	0.0	-3.937	-21.235	0.138
         359	1	120	3	0.0	-4.475	-23.456	-0.542
         360	1	120	4	0.0	-2.896	-21.699	1.168
         361	1	121	1	0.0	-4.455	-22.958	-3.205
         362	1	121	3	0.0	-3.557	-25.015	-4.042
         363	1	121	4	0.0	-4.817	-22.1	-4.402
         364	1	122	1	0.0	-0.924	-24.269	-3.669
         365	1	122	3	0.0	-1.379	-25.466	-1.61
         366	1	122	4	0.0	0.305	-23.364002	-3.711
         367	1	123	1	0.0	0.449	-27.413	-1.98
         368	1	123	3	0.0	1.641	-25.748	-0.681
         369	1	123	4	0.0	1.475	-28.288998	-2.688
         370	1	124	1	0.0	1.166	-27.063	1.705
         371	1	124	3	0.0	3.027	-26.198	2.918
         372	1	124	4	0.0	0.514	-27.944	2.792
         373	1	125	1	0.0	4.906	-27.391	1.38
         374	1	125	3	0.0	6.569	-25.711002	1.038
         375	1	125	4	0.0	5.704	-28.602	0.825
         376	1	126	1	0.0	5.009	-24.164999	-0.613
         377	1	126	3	0.0	5.015	-21.84	-0.086
         378	1	126	4	0.0	4.385	-24.0	-1.989
         379	1	127	1	0.0	3.644	-22.074	2.252
         380	1	127	3	0.0	5.066	-20.338	3.064
         381	1	127	4	0.0	2.52	-22.453	3.208
         382	1	128	1	0.0	6.923	-21.86	4.233
         383	1	128	3	0.0	8.768	-20.524	3.579
         384	1	128	4	0.0	7.502	-23.032	5.032
         385	1	129	1	0.0	8.72	-21.267	0.955
         386	1	129	3	0.0	9.184	-18.964	0.487
         387	1	129	4	0.0	8.682	-22.179	-0.297
         388	1	130	1	0.0	6.558	-18.237	0.269
         389	1	130	3	0.0	7.305	-16.15	1.213
         390	1	130	4	0.0	5.048	-18.257	-0.006
         391	1	131	1	0.0	6.928	-16.913	3.795
         392	1	131	3	0.0	8.87	-15.550999	4.242
         393	1	131	4	0.0	6.319	-17.55	5.062
         394	1	132	1	0.0	10.66	-17.533	3.744
         395	1	132	3	0.0	12.115001	-15.837	2.918
         396	1	132	4	0.0	11.344999	-18.893	3.643
         397	1	133	1	0.0	11.05	-15.742	0.43
         398	1	133	3	0.0	11.4	-13.366999	0.401
         399	1	133	4	0.0	10.483	-16.149	-0.924
         400	1	134	1	0.0	9.126	-12.752	1.735
         401	1	134	3	0.0	10.47	-11.021	2.718
         402	1	134	4	0.0	7.6710005	-12.759001	2.22
         403	1	135	1	0.0	11.22	-12.535	4.89
         404	1	135	3	0.0	13.346	-11.431001	4.717
         405	1	135	4	0.0	11.160999	-13.482	6.086
         406	1	136	1	0.0	14.384	-13.169	2.862
         407	1	136	3	0.0	15.55	-11.163	2.27
         408	1	136	4	0.0	14.630001	-14.386	1.97
         409	1	137	1	0.0	13.808	-10.426	0.36
         410	1	137	3	0.0	14.204	-8.112	0.791
         411	1	137	4	0.0	12.896	-10.563	-0.863
         412	1	138	1	0.0	12.535	-7.914	2.905
         413	1	138	3	0.0	14.191	-6.521	3.957
         414	1	138	4	0.0	11.287001	-8.021	3.761
         415	1	139	1	0.0	15.550999	-8.59	5.087
         416	1	139	3	0.0	17.532	-7.3350005	4.628
         417	1	139	4	0.0	15.874	-9.906	5.806
         418	1	140	1	0.0	17.792	-8.202	2.057
         419	1	140	3	0.0	18.646	-6.012	1.583
         420	1	140	4	0.0	17.734	-9.059	0.789
         421	1	141	1	0.0	16.203	-4.846	1.289
         422	1	141	3	0.0	17.363	-2.944	2.157
         423	1	141	4	0.0	14.733	-4.592	0.986
         424	1	142	1	0.0	16.773	-3.402	4.741
         425	1	142	3	0.0	18.945	-2.591	5.392
         426	1	142	4	0.0	15.909999	-3.651	6.003
         427	1	143	1	0.0	20.242	-4.934	4.963
         428	1	143	3	0.0	22.157	-3.732	4.208
         429	1	143	4	0.0	20.588	-6.414	5.0
         430	1	144	1	0.0	21.29	-3.398	1.664
         431	1	144	3	0.0	22.313002	-1.256	1.785
         432	1	144	4	0.0	20.702	-3.651	0.286
         433	1	145	1	0.0	20.156	0.051	2.814
         434	1	145	3	0.0	21.702002	1.375	4.088
         435	1	145	4	0.0	18.736	0.495	3.076
         436	1	146	1	0.0	21.977	-0.455	6.115
         437	1	146	3	0.0	24.275	0.243	6.147
         438	1	146	4	0.0	21.692	-1.533	7.1510005
         439	1	147	1	0.0	25.133	-1.54	4.262
         440	1	147	3	0.0	26.689999	0.106	3.556
         441	1	147	4	0.0	25.272	-2.809	3.423
         442	1	148	1	0.0	24.932	1.484	1.964
         443	1	148	3	0.0	26.136	3.415	2.762
         444	1	148	4	0.0	23.793999	1.816	0.96
         445	1	149	1	0.0	24.574001	3.8	4.946
         446	1	149	3	0.0	26.614	4.653	5.883
         447	1	149	4	0.0	23.389	3.835	5.911
         448	1	150	1	0.0	27.451	2.226	6.856
         449	1	150	3	0.0	29.669	2.993	6.365
         450	1	150	4	0.0	27.500002	0.843	7.476
         451	1	151	1	0.0	29.662998	2.188	3.765
         452	1	151	3	0.0	31.041	4.095	3.359
         453	1	151	4	0.0	29.423002	1.379	2.5
         454	1	152	1	0.0	28.98	5.84	2.987
         455	1	152	3	0.0	30.273	7.535	4.051
         456	1	152	4	0.0	27.68	6.438	2.485
         457	1	153	1	0.0	29.59	6.8550005	6.5789995
         458	1	153	3	0.0	31.839	7.536	7.086
         459	1	153	4	0.0	28.813	6.4149995	7.8350005
         460	1	154	1	0.0	32.926	5.054	6.673
         461	1	154	3	0.0	34.815	6.273	5.825
         462	1	154	4	0.0	33.131	3.534	6.694
         463	1	155	1	0.0	33.913	6.397	3.261
         464	1	155	3	0.0	34.87	8.534	2.813
         465	1	155	4	0.0	33.261	6.014	1.939
         466	1	156	1	0.0	33.092	9.957	4.283
         467	1	156	3	0.0	34.747	11.247001	5.463
         468	1	156	4	0.0	31.664	10.532	4.374
         469	1	157	1	0.0	34.457	9.888	7.796
         470	1	157	3	0.0	36.817	10.296	8.082
         471	1	157	4	0.0	33.833	9.155	8.985
         472	1	158	1	0.0	37.618	7.882	6.9470005
         473	1	158	3	0.0	37.792	6.325	5.14
         474	1	158	4	0.0	37.905	6.7049994	7.879
         475	1	159	1	0.0	38.337	8.182	3.211
         476	1	159	3	0.0	39.758	6.72	1.964
         477	1	159	4	0.0	38.246	9.555	2.541
         478	1	160	1	0.0	41.988	7.155	3.483
         479	1	160	3	0.0	42.488	4.804	3.234
         480	1	160	4	0.0	43.105	7.958	4.186
         481	1	161	1	0.0	41.252	4.069	5.555
         482	1	161	3	0.0	40.499	2.019	4.565
         483	1	161	4	0.0	40.819	4.094	7.023
         484	1	162	1	0.0	38.284	3.11	3.39
         485	1	162	3	0.0	38.482	1.644	1.524
         486	1	162	4	0.0	36.993	3.933	3.203
         487	1	163	1	0.0	40.29	3.249	0.172
         488	1	163	3	0.0	41.696	1.62	-0.852
         489	1	163	4	0.0	40.942	4.495	-0.416
         490	1	164	1	0.0	42.659	0.558	1.496
         491	1	164	3	0.0	42.554	-1.7	0.702
         492	1	164	4	0.0	43.348	0.572	2.867
         493	1	165	1	0.0	39.969	-2.107	1.54
         494	1	165	3	0.0	37.719	-2.573	0.859
         495	1	165	4	0.0	39.59	-2.732	2.884
         496	1	166	1	0.0	37.654	-0.632	-1.093
         497	1	166	3	0.0	38.774	-0.594	-3.191
         498	1	166	4	0.0	37.334	0.859	-1.144
         499	1	167	1	0.0	37.582	-2.925	-4.125
         500	1	167	3	0.0	35.29	-3.575	-3.875
         501	1	167	4	0.0	38.612	-4.051	-4.029
         502	1	168	1	0.0	35.0	-4.25	-6.514
         503	1	168	3	0.0	33.559	-5.98	-5.688
         504	1	168	4	0.0	35.144	-4.282	-8.049
         505	1	169	1	0.0	35.573	-7.785	-5.256
         506	1	169	3	0.0	34.268	-8.523	-3.401
         507	1	169	4	0.0	36.877	-8.555	-5.391
         508	1	170	1	0.0	35.24	-6.679	-1.646
         509	1	170	3	0.0	33.114	-6.5190005	-0.602
         510	1	170	4	0.0	36.217	-5.8	-0.869
         511	1	171	1	0.0	32.029	-4.864	-2.51
         512	1	171	3	0.0	29.999002	-6.101	-2.184
         513	1	171	4	0.0	31.875	-3.759	-3.556
         514	1	172	1	0.0	30.634003	-8.065	-3.983
         515	1	172	3	0.0	29.567	-9.569	-2.437
         516	1	172	4	0.0	31.142	-8.786	-5.236
         517	1	173	1	0.0	31.762	-9.92	-0.852
         518	1	173	3	0.0	30.261997	-10.096	1.009
         519	1	173	4	0.0	33.186	-10.062	-0.344
         520	1	174	1	0.0	29.865002	-7.405	1.282
         521	1	174	3	0.0	27.582	-7.898	1.812
         522	1	174	4	0.0	30.129002	-5.9010005	1.405
         523	1	175	1	0.0	26.786	-8.033	-0.831
         524	1	175	3	0.0	25.384	-9.823	-0.046
         525	1	175	4	0.0	26.639	-7.752	-2.335
         526	1	176	1	0.0	27.306	-11.751	-0.259
         527	1	176	3	0.0	26.328	-12.829001	1.646
         528	1	176	4	0.0	28.516	-12.573	-0.715
         529	1	177	1	0.0	27.481	-11.142	3.478
         530	1	177	3	0.0	25.421	-11.23	4.687
         531	1	177	4	0.0	28.555	-10.347	4.221
         532	1	178	1	0.0	24.208	-9.219	3.251
         533	1	178	3	0.0	22.271	-10.588	3.692
         534	1	178	4	0.0	23.947998	-7.964	2.44
         535	1	179	1	0.0	22.542	-12.135	1.464
         536	1	179	3	0.0	21.745	-14.043	2.659
         537	1	179	4	0.0	22.787	-12.590001	0.029
         538	1	180	1	0.0	24.129002	-14.538999	3.945
         539	1	180	3	0.0	22.787	-15.189	5.839
         540	1	180	4	0.0	25.619	-14.727	4.215
         541	1	181	1	0.0	22.659	-12.664	6.886
         542	1	181	3	0.0	20.414	-13.292	7.482
         543	1	181	4	0.0	23.048	-11.248	7.364
         544	1	182	1	0.0	19.317	-12.483001	5.109
         545	1	182	3	0.0	17.733	-14.256	5.465
         546	1	182	4	0.0	19.054	-11.752999	3.801
         547	1	183	1	0.0	19.318	-16.201	4.394
         548	1	183	3	0.0	18.534	-17.649	6.14
         549	1	183	4	0.0	20.231	-16.931	3.397
         550	1	184	1	0.0	20.423	-16.899	7.971
         551	1	184	3	0.0	18.927	-17.223	9.785
         552	1	184	5	0.0	20.347	-16.557089	8.21604
         553	1	185	1	0.0	17.451	-14.954	9.325
         554	1	185	3	0.0	15.473	-16.257	9.645
         555	1	185	4	0.0	17.205	-13.451	9.209
         556	1	186	1	0.0	14.946001	-16.565	6.992
         557	1	186	3	0.0	14.046	-18.716	6.558
         558	1	186	4	0.0	14.672	-16.048	5.5789995
         559	1	187	1	0.0	16.263	-20.124	7.208
         560	1	187	3	0.0	15.233	-22.113	8.022
         561	1	187	4	0.0	17.772	-20.521	7.0929995
         562	1	188	1	0.0	14.399	-21.26	10.382
         563	1	188	3	0.0	12.226	-22.204	10.514
         564	1	188	4	0.0	14.492	-20.582	11.743
         565	1	189	1	0.0	11.090999	-20.556	8.656
         566	1	189	3	0.0	9.697	-22.46	8.282
         567	1	189	4	0.0	10.726	-19.274	7.872
         568	1	190	1	0.0	11.049	-23.585999	6.2690005
         569	1	190	3	0.0	10.602	-25.782001	7.081
         570	1	190	4	0.0	11.921	-23.667	5.021
         571	1	191	1	0.0	12.575001	-25.784	8.952
         572	1	191	3	0.0	10.978	-27.123001	10.142
         573	1	191	4	0.0	13.924	-25.558998	9.648
         574	1	192	1	0.0	9.867	-25.036	11.509
         575	1	192	3	0.0	7.727	-26.049002	11.197999
         576	1	192	4	0.0	9.795	-23.782001	12.395
         577	1	193	1	0.0	7.212	-24.809	8.836
         578	1	193	3	0.0	5.836	-26.684002	8.25
         579	1	193	5	0.0	8.434	-22.50643	7.8972487
         580	1	194	1	0.0	7.917	-28.236002	7.4
         581	1	194	3	0.0	7.408	-30.418	8.218
         582	1	194	4	0.0	9.105	-28.609999	6.516
         583	1	195	1	0.0	7.8	-29.807	10.854999
         584	1	195	3	0.0	5.858	-30.565	12.012
         585	1	195	4	0.0	8.957	-29.705002	11.856
         586	1	196	1	0.0	4.804	-28.029	12.346
         587	1	196	3	0.0	4.361	-25.98	11.196
         588	1	196	4	0.0	5.074	-27.348999	13.685999
         589	1	197	1	0.0	2.065	-26.855	10.0
         590	1	197	3	0.0	0.61	-24.97	10.015
         591	1	197	4	0.0	1.216	-27.809	9.179
         592	1	198	1	0.0	0.197	-24.949	12.710001
         593	1	198	3	0.0	0.203	-22.612999	13.130001
         594	1	198	4	0.0	-0.195	-25.488	14.076
         595	1	199	1	0.0	2.899	-22.311	12.831
         596	1	199	3	0.0	2.988	-20.227	11.682001
         597	1	199	4	0.0	4.385	-22.582998	13.108
         598	1	200	1	0.0	2.357	-21.268	9.198
         599	1	200	3	0.0	0.749	-20.807	7.536
         600	1	200	4	0.0	3.384	-21.729	8.166
         601	1	201	1	0.0	-1.372	-21.914	8.855
         602	1	201	3	0.0	-2.11	-21.9	11.111
         603	1	201	4	0.0	-1.777	-23.291998	8.355
         604	1	202	1	0.0	-4.252	-20.207	10.563
         605	1	202	3	0.0	-6.028	-20.672	9.014
         606	1	202	4	0.0	-4.372	-18.687	10.612
         607	1	203	1	0.0	-7.378	-22.379	10.84
         608	1	203	3	0.0	-8.128	-23.625002	8.948
         609	1	203	4	0.0	-8.612	-21.486	10.62
         610	1	204	1	0.0	-5.603	-24.929	8.6
         611	1	204	3	0.0	-5.379	-25.269	6.253
         612	1	204	4	0.0	-6.426	-26.208998	8.814
         613	1	205	1	0.0	-6.3090005	-22.791002	5.52
         614	1	205	3	0.0	-4.828	-21.576998	4.105
         615	1	205	4	0.0	-7.7829995	-22.454	5.262
         616	1	206	1	0.0	-4.764	-19.328	5.668
         617	1	206	3	0.0	-2.873	-19.812	7.057
         618	1	206	4	0.0	-5.355	-18.173	6.479
         619	1	207	1	0.0	-1.028	-19.192	5.088
         620	1	207	3	0.0	-0.275	-16.899	5.09
         621	1	207	4	0.0	-0.357	-19.399	3.73
         622	1	208	1	0.0	0.031	-16.826	7.854
         623	1	208	3	0.0	0.763	-18.424	9.464
         624	1	208	4	0.0	-1.13	-16.079	8.55
         625	1	209	1	0.0	3.111	-17.098	10.023
         626	1	209	3	0.0	2.537	-15.73	11.933
         627	1	209	4	0.0	4.416	-16.344	9.784
         628	1	210	1	0.0	1.564	-17.882	13.406999
         629	1	210	3	0.0	2.415	-19.374	15.065
         630	1	210	4	0.0	0.296	-18.698	13.443001
         631	1	211	1	0.0	4.614	-17.805	15.636
         632	1	211	3	0.0	5.689	-15.684	15.564
         633	1	211	4	0.0	5.81	-18.568	15.07
         634	1	212	1	0.0	5.081	-14.9	18.063
         635	1	212	3	0.0	7.032	-13.563001	18.182
         636	1	212	4	0.0	4.341	-14.894001	19.393
         637	1	213	1	0.0	8.761	-15.630999	18.657
         638	1	213	3	0.0	10.285	-14.323	17.35
         639	1	213	4	0.0	9.367	-16.944	19.14
         640	1	214	1	0.0	9.585	-15.413	14.932
         641	1	214	3	0.0	9.83	-13.343	13.792
         642	1	214	4	0.0	9.242	-16.432	13.86
         643	1	215	1	0.0	7.437	-12.302001	14.590999
         644	1	215	3	0.0	8.672	-10.245	14.743