ITEM: TIMESTEP
0
ITEM: NUMBER OF ATOMS
2694
ITEM: BOX BOUNDS ss ss ss
-64.939 67.704
-42.82 41.347
-45.656 39.172
ITEM: ATOMS id type xs ys zs
1 1 0.508169 0.764801 0.539338
2 3 0.492397 0.751375 0.538843
3 4 0.507256 0.776338 0.553178
4 1 0.485484 0.766833 0.512637
5 3 0.478714 0.741288 0.505034
6 4 0.482687 0.780508 0.501686
7 1 0.495232 0.732544 0.487846
8 3 0.49245 0.706108 0.49697
9 4 0.50452 0.732829 0.477107
10 1 0.502198 0.710255 0.525015
11 3 0.489638 0.694179 0.537346
12 4 0.510385 0.71534 0.53658
13 1 0.476437 0.718785 0.542179
14 3 0.464035 0.698671 0.537511
15 4 0.471853 0.735193 0.545056
16 1 0.463741 0.702686 0.505835
17 3 0.461457 0.674766 0.502228
18 4 0.4635 0.710445 0.489602
19 1 0.48133 0.667079 0.504586
20 3 0.475864 0.643613 0.518001
21 4 0.492789 0.667459 0.502723
22 1 0.47615 0.657015 0.547425
23 3 0.461268 0.641617 0.553025
24 4 0.479844 0.666496 0.56189
25 1 0.44812 0.662754 0.540293
26 3 0.439284 0.639122 0.533373
27 4 0.44282 0.677819 0.534871
28 1 0.448942 0.635296 0.504845
29 3 0.447698 0.607198 0.509171
30 4 0.454325 0.638528 0.489296
31 1 0.464389 0.605522 0.528316
32 3 0.454792 0.585467 0.541684
33 4 0.474733 0.608516 0.535248
34 1 0.445753 0.60532 0.562338
35 3 0.43063 0.590136 0.561972
36 4 0.444057 0.618901 0.574244
37 1 0.424003 0.60121 0.533633
38 3 0.418891 0.574144 0.529471
39 4 0.421108 0.61296 0.52043
40 1 0.436261 0.564687 0.515702
41 3 0.434497 0.539534 0.528351
42 4 0.445602 0.564354 0.505317
43 1 0.442285 0.549289 0.556679
44 3 0.430222 0.532228 0.568704
45 4 0.449025 0.557641 0.568763
46 1 0.414986 0.554136 0.568928
47 3 0.403964 0.53256 0.562479
48 4 0.409354 0.570033 0.571085
49 1 0.407673 0.533237 0.531157
50 3 0.405472 0.505008 0.5319
51 5 0.411774 0.531535 0.519385
52 1 0.42484 0.498794 0.541189
53 3 0.418801 0.477669 0.557729
54 4 0.436291 0.499412 0.541743
55 1 0.413968 0.496976 0.582402
56 3 0.399049 0.482351 0.588343
57 4 0.414941 0.509808 0.595039
58 1 0.387619 0.496216 0.565238
59 3 0.380691 0.470125 0.56097
60 4 0.38284 0.509178 0.55484
61 1 0.394216 0.46163 0.538537
62 3 0.393319 0.434505 0.547355
63 4 0.401273 0.462069 0.524402
64 1 0.407274 0.437333 0.570248
65 3 0.397458 0.423919 0.5899
66 4 0.418522 0.438652 0.572818
67 1 0.398785 0.448121 0.611308
68 3 0.382199 0.454869 0.601252
69 4 0.404545 0.459919 0.62134
70 1 0.372986 0.451293 0.630429
71 3 0.362628 0.466252 0.647675
72 4 0.368787 0.435967 0.637608
73 1 0.37714 0.488089 0.654949
74 3 0.368252 0.501349 0.633694
75 4 0.387559 0.494754 0.6597
76 1 0.360675 0.524683 0.652744
77 3 0.375007 0.542208 0.650139
78 4 0.355292 0.531824 0.666997
79 1 0.368802 0.554101 0.621387
80 3 0.369616 0.581998 0.616895
81 4 0.368146 0.549325 0.603928
82 1 0.353596 0.58959 0.635309
83 3 0.362401 0.613673 0.640213
84 4 0.343169 0.589138 0.642453
85 1 0.371471 0.605855 0.666891
86 3 0.386315 0.620314 0.660442
87 4 0.3727 0.598311 0.683347
88 1 0.394103 0.59793 0.640862
89 3 0.39938 0.620576 0.625701
90 4 0.397315 0.581736 0.634095
91 1 0.382214 0.622227 0.60829
92 3 0.382832 0.650481 0.608761
93 4 0.373084 0.617534 0.598564
94 1 0.375602 0.653558 0.638575
95 3 0.386918 0.675253 0.64237
96 4 0.369081 0.651217 0.653157
97 1 0.402878 0.65673 0.651731
98 3 0.413139 0.67517 0.63736
99 4 0.408819 0.64378 0.660713
100 1 0.412114 0.659047 0.60974
101 3 0.412649 0.68496 0.597928
102 4 0.411699 0.645419 0.597574
103 1 0.392459 0.690247 0.599778
104 3 0.396598 0.717443 0.604659
105 4 0.381038 0.687574 0.599071
106 1 0.39877 0.714128 0.63637
107 3 0.411835 0.733268 0.63703
108 4 0.396885 0.708888 0.653416
109 1 0.426709 0.712975 0.627859
110 3 0.432673 0.734611 0.611767
111 4 0.433819 0.698314 0.629297
112 1 0.4264 0.721328 0.583958
113 3 0.419102 0.738496 0.564861
114 4 0.428127 0.70808 0.572134
115 1 0.402305 0.746136 0.583557
116 3 0.394759 0.751601 0.558318
117 4 0.406015 0.763351 0.582862
118 1 0.389203 0.720449 0.553166
119 3 0.375889 0.7113 0.569835
120 4 0.393794 0.705098 0.546907
121 1 0.36069 0.720365 0.549583
122 3 0.349593 0.707736 0.531039
123 4 0.355088 0.735621 0.545386
124 1 0.358903 0.678437 0.533409
125 3 0.370453 0.661138 0.546518
126 4 0.364339 0.677284 0.517306
127 1 0.355609 0.64157 0.558471
128 3 0.357456 0.613661 0.556078
129 5 0.353927 0.629447 0.571791
130 1 0.350942 0.612235 0.525298
131 3 0.35683 0.601958 0.501026
132 5 0.351779 0.593066 0.52505
133 1 0.374486 0.618889 0.501474
134 3 0.384001 0.597823 0.490039
135 4 0.381392 0.633372 0.502865
136 1 0.387853 0.582663 0.518025
137 3 0.387288 0.55498 0.512637
138 4 0.391276 0.581059 0.535224
139 1 0.367724 0.554148 0.503878
140 3 0.372262 0.558723 0.47667
141 4 0.3564 0.557083 0.503631
142 1 0.375798 0.527071 0.470823
143 3 0.358217 0.52479 0.464717
144 4 0.380299 0.510271 0.472969
145 1 0.360358 0.525515 0.433289
146 3 0.362168 0.497214 0.435304
147 4 0.364934 0.53123 0.417704
148 1 0.342438 0.491297 0.427206
149 3 0.343245 0.468426 0.410761
150 4 0.330994 0.492711 0.42855
151 1 0.352593 0.482731 0.386512
152 3 0.362469 0.459289 0.382268
153 5 0.349434 0.482989 0.381615
154 1 0.378889 0.470315 0.398819
155 3 0.374713 0.462865 0.425284
156 4 0.387582 0.481733 0.401896
157 1 0.37864 0.430941 0.420722
158 3 0.388298 0.427068 0.44404
159 4 0.375059 0.415697 0.412894
160 1 0.406407 0.422933 0.42862
161 3 0.421794 0.436074 0.420545
162 4 0.410907 0.408343 0.420863
163 1 0.416939 0.464256 0.434196
164 3 0.434565 0.467713 0.438299
165 4 0.411036 0.478976 0.440043
166 1 0.436578 0.450818 0.464646
167 3 0.45241 0.440826 0.456276
168 4 0.433796 0.443618 0.480726
169 1 0.444524 0.418644 0.436295
170 3 0.458471 0.425048 0.419496
171 4 0.438048 0.405432 0.429351
172 1 0.448859 0.449915 0.404937
173 3 0.464917 0.46277 0.404524
174 4 0.440875 0.46024 0.397322
175 1 0.463417 0.474402 0.434691
176 3 0.481299 0.46997 0.435882
177 4 0.459308 0.481388 0.450017
178 1 0.479663 0.438913 0.445466
179 3 0.494877 0.435254 0.430518
180 4 0.475879 0.423848 0.453907
181 1 0.485453 0.42967 0.402473
182 3 0.499695 0.443072 0.391203
183 4 0.477711 0.424014 0.390213
184 1 0.492404 0.472941 0.395707
185 3 0.509812 0.47944 0.400363
186 4 0.485084 0.487305 0.39698
187 1 0.509412 0.472477 0.431768
188 3 0.526571 0.463923 0.427972
189 4 0.505945 0.471194 0.44879
190 1 0.521626 0.433911 0.417574
191 3 0.536545 0.438129 0.402084
192 4 0.516228 0.417979 0.415417
193 1 0.526707 0.450367 0.376633
194 3 0.541966 0.465539 0.373697
195 4 0.518776 0.453361 0.363925
196 1 0.536025 0.489325 0.393278
197 3 0.553456 0.491808 0.400328
198 4 0.529564 0.501289 0.402426
199 1 0.553101 0.468141 0.422585
200 3 0.569898 0.463067 0.413425
201 4 0.549437 0.458113 0.436389
202 1 0.564447 0.438759 0.394033
203 3 0.578417 0.448798 0.378719
204 4 0.559132 0.423895 0.387478
205 1 0.567071 0.467832 0.360306
206 3 0.581863 0.484002 0.359186
207 5 0.563068 0.471824 0.356118
208 1 0.577475 0.500885 0.385215
209 3 0.595244 0.501954 0.389199
210 5 0.571082 0.516915 0.39672
211 1 0.596255 0.475281 0.406859
212 3 0.61235 0.468937 0.395836
213 4 0.593933 0.46321 0.419649
214 1 0.605128 0.456188 0.368534
215 3 0.618917 0.469543 0.356121
216 4 0.598916 0.445923 0.357134
217 1 0.609516 0.498057 0.352949
218 3 0.62528 0.51083 0.357783
219 4 0.601637 0.510937 0.35012
220 1 0.624647 0.5066 0.389812
221 3 0.642454 0.501859 0.387301
222 4 0.620787 0.506398 0.406941
223 1 0.640531 0.469638 0.382751
224 3 0.654923 0.473297 0.366141
225 4 0.636649 0.452458 0.383741
226 1 0.644384 0.481222 0.33997
227 3 0.657992 0.498723 0.33351
228 4 0.6364 0.482172 0.327109
229 1 0.651667 0.522913 0.351794
230 3 0.669202 0.528687 0.356003
231 4 0.644972 0.53502 0.360211
232 1 0.6712 0.509273 0.381478
233 3 0.68756 0.50275 0.371175
234 4 0.668961 0.501966 0.397734
235 1 0.681483 0.47616 0.355791
236 3 0.693501 0.47736 0.33496
237 4 0.676221 0.460584 0.352761
238 1 0.683722 0.500446 0.318103
239 3 0.696916 0.518624 0.311583
240 4 0.674819 0.502038 0.306514
241 1 0.689806 0.543039 0.329761
242 3 0.700308 0.535483 0.351405
243 4 0.682441 0.554719 0.337283
244 1 0.717007 0.550026 0.339664
245 3 0.724192 0.558746 0.36396
246 4 0.725247 0.553673 0.327734
247 1 0.711707 0.58435 0.367414
248 3 0.706769 0.58498 0.394221
249 4 0.70735 0.600485 0.362321
250 1 0.695182 0.557855 0.392759
251 3 0.696335 0.533535 0.407165
252 4 0.684461 0.553043 0.387985
253 1 0.716397 0.528295 0.400068
254 3 0.730668 0.539665 0.41346
255 4 0.723521 0.522604 0.387007
256 1 0.723054 0.533867 0.443191
257 3 0.712205 0.512671 0.452245
258 4 0.722458 0.551511 0.448213
259 1 0.719171 0.513741 0.482459
260 3 0.702427 0.505269 0.489508
261 4 0.726077 0.515665 0.496876
262 1 0.695144 0.535554 0.493552
263 3 0.679372 0.523424 0.486479
264 4 0.694292 0.553329 0.496605
265 1 0.681815 0.527333 0.454897
266 3 0.673899 0.502952 0.447541
267 4 0.684077 0.535138 0.439006
268 1 0.688653 0.483824 0.458186
269 3 0.676138 0.466406 0.469232
270 4 0.69914 0.476291 0.460579
271 1 0.673869 0.482968 0.496381
272 3 0.65628 0.478026 0.494247
273 4 0.676214 0.491808 0.511529
274 1 0.652466 0.503321 0.47489
275 3 0.640403 0.48797 0.460544
276 4 0.652488 0.520014 0.46797
277 1 0.654577 0.472252 0.442684
278 3 0.643751 0.449404 0.445572
279 4 0.663865 0.468937 0.432605
280 1 0.652654 0.439032 0.472792
281 3 0.63634 0.430608 0.482046
282 4 0.660457 0.434232 0.485076
283 1 0.630731 0.460442 0.491996
284 3 0.614054 0.454454 0.482577
285 4 0.631168 0.477052 0.499411
286 1 0.618088 0.462497 0.452056
287 3 0.607706 0.440695 0.443497
288 4 0.621804 0.471384 0.437627
289 1 0.622581 0.418204 0.447447
290 3 0.608867 0.401725 0.456406
291 4 0.632804 0.40959 0.447376
292 1 0.610104 0.41123 0.487103
293 3 0.592161 0.407713 0.487339
294 4 0.614107 0.416802 0.503112
295 1 0.587811 0.437404 0.476175
296 3 0.57415 0.42721 0.461157
297 4 0.587977 0.455523 0.474159
298 1 0.585692 0.417004 0.436707
299 3 0.574452 0.394692 0.43587
300 4 0.593759 0.415697 0.424058
301 1 0.58429 0.377357 0.45795
302 3 0.56983 0.366462 0.470694
303 4 0.592968 0.36866 0.466108
304 1 0.564025 0.394288 0.484533
305 3 0.547794 0.386149 0.475162
306 4 0.564364 0.409555 0.494648
307 1 0.548548 0.403959 0.448519
308 3 0.540745 0.386945 0.42941
309 5 0.556351 0.420332 0.449095
310 1 0.555876 0.364454 0.43
311 3 0.547696 0.339432 0.431756
312 4 0.566558 0.361805 0.423645
313 1 0.552362 0.334252 0.462949
314 3 0.538611 0.326387 0.479335
315 4 0.56202 0.327195 0.47014
316 1 0.538385 0.353309 0.49723
317 3 0.520306 0.353547 0.497289
318 4 0.543444 0.364727 0.508959
319 1 0.518595 0.378806 0.47746
320 3 0.502371 0.370537 0.469586
321 4 0.520638 0.39487 0.469432
322 1 0.507686 0.34788 0.449521
323 3 0.494093 0.332102 0.459047
324 4 0.51374 0.339361 0.436695
325 1 0.504082 0.320268 0.484309
326 3 0.489193 0.322525 0.500024
327 4 0.512194 0.31207 0.494047
328 1 0.491477 0.354403 0.5058
329 3 0.473617 0.357717 0.502228
330 4 0.496197 0.370311 0.510445
331 1 0.474831 0.359321 0.470081
332 3 0.459278 0.344767 0.470316
333 4 0.478246 0.363373 0.453459
334 1 0.468264 0.315694 0.471931
335 3 0.455478 0.305428 0.488824
336 4 0.475283 0.301733 0.468878
337 1 0.46252 0.319401 0.51549
338 3 0.446492 0.326898 0.525617
339 4 0.470044 0.323714 0.52841
340 1 0.444554 0.3535 0.507132
341 3 0.427169 0.348759 0.50132
342 4 0.448 0.370193 0.502263
343 1 0.430615 0.334799 0.472521
344 3 0.417798 0.31529 0.469692
345 4 0.435289 0.331389 0.456371
346 1 0.42153 0.300545 0.49842
347 3 0.417376 0.294023 0.525216
348 4 0.427961 0.285421 0.498574
349 1 0.41188 0.325282 0.533149
350 3 0.415159 0.315325 0.559037
351 4 0.401092 0.319769 0.535908
352 1 0.436299 0.320125 0.556078
353 3 0.439586 0.29887 0.574315
354 4 0.43562 0.331139 0.570496
355 1 0.435228 0.275381 0.552094
356 3 0.444245 0.274062 0.527833
357 4 0.425352 0.266672 0.547626
358 1 0.459896 0.256454 0.539845
359 3 0.45584 0.230066 0.531829
360 4 0.467744 0.250942 0.551988
361 1 0.455991 0.235983 0.500436
362 3 0.462761 0.211544 0.490569
363 4 0.453262 0.246177 0.486325
364 1 0.482611 0.220407 0.494966
365 3 0.479181 0.206185 0.519239
366 4 0.491877 0.231159 0.494471
367 1 0.492962 0.183053 0.514877
368 3 0.501949 0.202835 0.530191
369 4 0.500697 0.172645 0.506531
370 1 0.498368 0.187211 0.558318
371 3 0.512398 0.197488 0.572618
372 4 0.493452 0.176744 0.571132
373 1 0.526564 0.183314 0.554487
374 3 0.539101 0.203274 0.550455
375 4 0.53258 0.168926 0.547944
376 1 0.52734 0.221643 0.530992
377 3 0.527386 0.249266 0.537205
378 4 0.522636 0.223603 0.514771
379 1 0.51705 0.246486 0.564766
380 3 0.52777 0.267112 0.574339
381 4 0.508576 0.241983 0.576036
382 1 0.54177 0.249029 0.588119
383 3 0.55568 0.264902 0.58041
384 4 0.546135 0.235104 0.597539
385 1 0.555318 0.256074 0.549477
386 3 0.558816 0.283437 0.54396
387 4 0.555031 0.245239 0.534717
388 1 0.539018 0.292074 0.54139
389 3 0.54465 0.31687 0.552518
390 4 0.527634 0.291836 0.538148
391 1 0.541808 0.307805 0.582956
392 3 0.556449 0.323987 0.588226
393 4 0.537216 0.300236 0.597892
394 1 0.569943 0.300438 0.582355
395 3 0.580913 0.320589 0.572618
396 4 0.575108 0.28428 0.581164
397 1 0.572884 0.321718 0.543288
398 3 0.575522 0.349935 0.542946
399 4 0.568609 0.316882 0.527326
400 1 0.558379 0.357242 0.558672
401 3 0.568511 0.377808 0.57026
402 4 0.547409 0.357159 0.564389
403 1 0.574165 0.35982 0.595865
404 3 0.590193 0.372937 0.593825
405 4 0.57372 0.348569 0.609964
406 1 0.598019 0.352288 0.571957
407 3 0.606809 0.376121 0.564979
408 4 0.599873 0.337828 0.561442
409 1 0.593676 0.384878 0.542462
410 3 0.596662 0.412371 0.547543
411 4 0.586801 0.38325 0.528045
412 1 0.584079 0.414723 0.572464
413 3 0.596564 0.431274 0.584866
414 4 0.57467 0.413452 0.582555
415 1 0.606817 0.406691 0.598187
416 3 0.621752 0.421602 0.592776
417 4 0.609252 0.391056 0.606663
418 1 0.623712 0.411301 0.562468
419 3 0.63015 0.437321 0.55688
420 4 0.623275 0.401119 0.54752
421 1 0.611732 0.451174 0.553414
422 3 0.620478 0.473772 0.563646
423 4 0.60065 0.454192 0.549842
424 1 0.616029 0.468331 0.594108
425 3 0.632404 0.477966 0.601782
426 4 0.609523 0.465372 0.608985
427 1 0.642182 0.450129 0.596725
428 3 0.65662 0.46441 0.587825
429 4 0.644791 0.432545 0.597161
430 1 0.650083 0.468378 0.557835
431 3 0.657796 0.493828 0.559261
432 4 0.64565 0.465372 0.54159
433 1 0.641534 0.509356 0.571392
434 3 0.653189 0.525087 0.58641
435 4 0.630829 0.514632 0.57448
436 1 0.655263 0.503345 0.610306
437 3 0.672587 0.511638 0.610683
438 4 0.653114 0.490537 0.622519
439 1 0.679056 0.490454 0.588461
440 3 0.690794 0.51001 0.580139
441 4 0.680104 0.475376 0.578571
442 1 0.67754 0.526382 0.561371
443 3 0.686617 0.549325 0.570779
444 4 0.668961 0.530327 0.549536
445 1 0.674841 0.553899 0.596525
446 3 0.690221 0.564033 0.607571
447 4 0.665908 0.554315 0.607901
448 1 0.696531 0.535198 0.619041
449 3 0.713253 0.544311 0.613253
450 4 0.696901 0.518766 0.62635
451 1 0.713208 0.534746 0.582602
452 3 0.723596 0.557404 0.577816
453 4 0.711398 0.525135 0.56769
454 1 0.708058 0.578136 0.573431
455 3 0.717806 0.598275 0.585974
456 4 0.698258 0.585241 0.567513
457 1 0.712657 0.590196 0.615775
458 3 0.729613 0.598287 0.621752
459 4 0.706799 0.584968 0.630582
460 1 0.737807 0.568798 0.616884
461 3 0.752049 0.583281 0.606887
462 4 0.739353 0.550738 0.617131
463 1 0.745249 0.584754 0.576661
464 3 0.752463 0.610144 0.57138
465 4 0.740333 0.580204 0.561077
466 1 0.739059 0.627051 0.588709
467 3 0.751536 0.642378 0.602619
468 4 0.728293 0.633883 0.589782
469 1 0.74935 0.626231 0.630122
470 3 0.767142 0.631079 0.633494
471 4 0.744645 0.617522 0.644139
472 1 0.773181 0.602398 0.620114
473 3 0.774492 0.583899 0.598812
474 4 0.775344 0.588414 0.631101
475 1 0.778601 0.605962 0.576072
476 3 0.789314 0.588592 0.561371
477 4 0.777915 0.622275 0.568173
478 1 0.806126 0.59376 0.579278
479 3 0.809896 0.565827 0.576343
480 4 0.814547 0.603301 0.587565
481 1 0.800577 0.557095 0.603704
482 3 0.794901 0.532738 0.592033
483 4 0.797313 0.557392 0.62101
484 1 0.778202 0.545701 0.578182
485 3 0.779694 0.528283 0.556184
486 4 0.768469 0.555479 0.575977
487 1 0.793325 0.547352 0.540246
488 3 0.803925 0.527998 0.528175
489 4 0.79824 0.562156 0.533314
490 1 0.811185 0.51538 0.555854
491 3 0.810393 0.488553 0.546494
492 4 0.816379 0.515546 0.572016
493 1 0.790905 0.483717 0.556373
494 3 0.773942 0.47818 0.548345
495 4 0.788048 0.476291 0.572217
496 1 0.773452 0.501242 0.525334
497 3 0.781896 0.501693 0.500601
498 4 0.77104 0.518956 0.524732
499 1 0.772909 0.473998 0.489591
500 3 0.75563 0.466275 0.492538
501 4 0.780674 0.46062 0.490722
502 1 0.753443 0.458256 0.461428
503 3 0.74258 0.437701 0.471165
504 4 0.754529 0.457875 0.443332
505 1 0.757763 0.416256 0.476258
506 3 0.747925 0.407487 0.498126
507 4 0.767594 0.407107 0.474666
508 1 0.755253 0.429396 0.518815
509 3 0.739225 0.431297 0.531122
510 4 0.762618 0.43984 0.527974
511 1 0.731045 0.450961 0.508629
512 3 0.715741 0.436264 0.512472
513 4 0.729884 0.464089 0.496298
514 1 0.720528 0.412929 0.491265
515 3 0.712484 0.39506 0.50949
516 4 0.724358 0.404363 0.476494
517 1 0.729032 0.39089 0.528175
518 3 0.717723 0.388798 0.550113
519 4 0.739768 0.389202 0.534163
520 1 0.714731 0.420771 0.553331
521 3 0.697519 0.414913 0.559579
522 4 0.716721 0.43864 0.554781
523 1 0.691518 0.413309 0.528422
524 3 0.680948 0.392042 0.537676
525 4 0.69041 0.416648 0.510692
526 1 0.695438 0.369135 0.535165
527 3 0.688065 0.356327 0.557622
528 4 0.70456 0.359369 0.52979
529 1 0.696757 0.376371 0.579219
530 3 0.681227 0.375325 0.593471
531 4 0.704854 0.385816 0.587978
532 1 0.672082 0.399218 0.576543
533 3 0.657479 0.382953 0.581742
534 4 0.670122 0.414129 0.566983
535 1 0.659522 0.364573 0.555477
536 3 0.653514 0.341904 0.569564
537 4 0.661369 0.359167 0.53856
538 1 0.671487 0.336011 0.584724
539 3 0.661369 0.328288 0.607052
540 4 0.68272 0.333777 0.587907
541 1 0.660404 0.358288 0.619395
542 3 0.643479 0.350826 0.626421
543 4 0.663337 0.375111 0.625029
544 1 0.635209 0.360438 0.598446
545 3 0.623267 0.339373 0.602643
546 4 0.633226 0.369111 0.583027
547 1 0.635216 0.316264 0.590017
548 3 0.629306 0.29906 0.6106
549 4 0.642099 0.307591 0.578264
550 1 0.643547 0.307971 0.632185
551 3 0.632269 0.304122 0.65357
552 5 0.642974 0.312033 0.635074
553 1 0.621141 0.33108 0.648147
554 3 0.606229 0.315599 0.651919
555 4 0.619286 0.348937 0.646779
556 1 0.602256 0.311939 0.620644
557 3 0.595471 0.286383 0.615528
558 4 0.60019 0.318082 0.603987
559 1 0.612185 0.269654 0.62319
560 3 0.604419 0.246023 0.632786
561 4 0.623561 0.264938 0.621835
562 1 0.598132 0.256157 0.660607
563 3 0.58175 0.244942 0.662163
564 4 0.598833 0.264213 0.676652
565 1 0.573193 0.264522 0.64026
566 3 0.562683 0.2419 0.635851
567 4 0.570441 0.279753 0.631018
568 1 0.572876 0.228522 0.612121
569 3 0.569506 0.202431 0.621693
570 4 0.57945 0.227559 0.597409
571 1 0.584381 0.202407 0.64375
572 3 0.572341 0.186498 0.657778
573 4 0.594551 0.20508 0.651955
574 1 0.563965 0.211294 0.673893
575 3 0.547831 0.199259 0.670227
576 4 0.563422 0.226193 0.684338
577 1 0.543949 0.213991 0.642382
578 3 0.533575 0.191714 0.635474
579 5 0.553161 0.241348 0.631316
580 1 0.549264 0.173275 0.625454
581 3 0.545426 0.14735 0.635097
582 4 0.55822 0.168831 0.615033
583 1 0.548382 0.154609 0.666183
584 3 0.533741 0.145603 0.679823
585 4 0.557104 0.155821 0.677984
586 1 0.525795 0.175734 0.68376
587 3 0.522455 0.200078 0.670203
588 4 0.52783 0.183813 0.699557
589 1 0.505145 0.189682 0.656104
590 3 0.494176 0.212078 0.656281
591 4 0.498745 0.178348 0.646426
592 1 0.491062 0.212328 0.688051
593 3 0.491108 0.240082 0.693002
594 4 0.488107 0.205924 0.704154
595 1 0.511433 0.24367 0.689478
596 3 0.512104 0.268431 0.675932
597 4 0.522636 0.240439 0.692743
598 1 0.507347 0.256062 0.64665
599 3 0.495224 0.26154 0.627057
600 4 0.515089 0.250585 0.634484
601 1 0.479234 0.248387 0.642606
602 3 0.47367 0.248553 0.669201
603 4 0.47618 0.232015 0.636712
604 1 0.457521 0.268668 0.662741
605 3 0.444132 0.263144 0.644481
606 4 0.456617 0.286728 0.663319
607 1 0.433954 0.242862 0.666007
608 3 0.4283 0.228058 0.643703
609 4 0.424651 0.253472 0.663413
610 1 0.447336 0.212565 0.6396
611 3 0.449025 0.208526 0.611932
612 4 0.441131 0.197358 0.642123
613 1 0.442014 0.237967 0.603291
614 3 0.453179 0.252391 0.586611
615 4 0.430901 0.241971 0.60025
616 1 0.453661 0.279112 0.605036
617 3 0.467918 0.273361 0.62141
618 4 0.449206 0.292834 0.614597
619 1 0.481827 0.280728 0.598199
620 3 0.487504 0.307971 0.598222
621 4 0.486886 0.278268 0.58219
622 1 0.489811 0.308838 0.630806
623 3 0.49533 0.289852 0.649785
624 4 0.481058 0.317714 0.639011
625 1 0.513031 0.305607 0.656375
626 3 0.508704 0.32186 0.678891
627 4 0.52287 0.314565 0.653558
628 1 0.501368 0.296292 0.696268
629 3 0.507784 0.278565 0.715813
630 4 0.491809 0.286597 0.696692
631 1 0.524362 0.297207 0.722544
632 3 0.532467 0.322407 0.721696
633 4 0.533379 0.288141 0.715872
634 1 0.527883 0.331721 0.751155
635 3 0.542592 0.347607 0.752558
636 4 0.522304 0.331793 0.766834
637 1 0.555627 0.323036 0.758158
638 3 0.567116 0.338577 0.74275
639 4 0.560195 0.307436 0.763852
640 1 0.561839 0.325626 0.714245
641 3 0.563686 0.35022 0.700806
642 4 0.559253 0.31352 0.701608
643 1 0.545645 0.362589 0.710225
644 3 0.554956 0.387028 0.712017
645 4 0.534239 0.363753 0.71329
646 1 0.558235 0.385127 0.743422
647 3 0.573879 0.398339 0.737693
648 4 0.556614 0.382157 0.760963
649 1 0.584893 0.371096 0.734687
650 3 0.593933 0.385923 0.714941
651 4 0.589093 0.354248 0.737469
652 1 0.581878 0.377119 0.69081
653 3 0.584803 0.401844 0.678373
654 5 0.580536 0.37951 0.667305
655 1 0.571504 0.418584 0.696303
656 3 0.584004 0.439151 0.694959
657 4 0.561681 0.422577 0.704944
658 1 0.591384 0.43403 0.724395
659 3 0.607948 0.441848 0.717098
660 4 0.591739 0.431202 0.742125
661 1 0.613323 0.413084 0.704508
662 3 0.620734 0.427472 0.682982
663 4 0.615947 0.395357 0.706076
664 1 0.607156 0.416992 0.661067
665 3 0.603726 0.43719 0.642535
666 4 0.601901 0.403745 0.652285
667 1 0.593985 0.456996 0.662222
668 3 0.601984 0.481673 0.66807
669 4 0.582556 0.456616 0.660985
670 1 0.595765 0.483551 0.698154
671 3 0.609704 0.500576 0.703164
672 4 0.589221 0.48216 0.712996
673 1 0.623063 0.476957 0.709671
674 3 0.634334 0.494719 0.696504
675 4 0.627557 0.462236 0.717346
676 1 0.633083 0.482695 0.667492
677 3 0.634885 0.509297 0.657755
678 4 0.631198 0.470814 0.65423
679 1 0.615253 0.517614 0.662222
680 3 0.621706 0.543396 0.668883
681 4 0.603809 0.517139 0.663095
682 1 0.625152 0.536386 0.699946
683 3 0.639483 0.553637 0.696586
684 4 0.62427 0.529436 0.716497
685 1 0.652239 0.530101 0.686094
686 3 0.659092 0.551047 0.67005
687 4 0.657381 0.514038 0.683795
688 1 0.645349 0.547055 0.645966
689 3 0.647512 0.575273 0.642017
690 4 0.637765 0.539784 0.634649
691 1 0.632902 0.584077 0.662635
692 3 0.64366 0.606295 0.667881
693 4 0.622762 0.584433 0.671618
694 1 0.654124 0.591978 0.691434
695 3 0.667973 0.607507 0.681237
696 4 0.656808 0.581855 0.705946
697 1 0.673733 0.585645 0.659417
698 3 0.678498 0.607887 0.643538
699 4 0.67592 0.569843 0.651153
700 1 0.659786 0.612889 0.63136
701 3 0.664144 0.6405 0.632091
702 4 0.649133 0.610168 0.624853
703 1 0.65809 0.645087 0.662293
704 3 0.671705 0.663859 0.663849
705 4 0.652315 0.644409 0.677795
706 1 0.68606 0.641593 0.670863
707 3 0.697956 0.655483 0.654796
708 4 0.691337 0.627693 0.678514
709 1 0.691322 0.642948 0.626751
710 3 0.695099 0.669039 0.616306
711 4 0.687356 0.631233 0.614679
712 1 0.676515 0.681407 0.622695
713 3 0.68563 0.705621 0.62833
714 4 0.665063 0.683142 0.624971
715 1 0.689972 0.697672 0.658603
716 3 0.7049 0.713296 0.653204
717 4 0.690018 0.690306 0.675319
718 1 0.716012 0.688144 0.642111
719 3 0.723476 0.707403 0.624805
720 4 0.720558 0.671475 0.640472
721 1 0.709627 0.704397 0.601594
722 3 0.712642 0.732009 0.596395
723 4 0.70168 0.697839 0.590041
724 1 0.699479 0.743047 0.618239
725 3 0.710592 0.764361 0.624428
726 4 0.689746 0.745316 0.627517
727 1 0.721772 0.746896 0.64507
728 3 0.735923 0.761831 0.634614
729 4 0.725157 0.73574 0.658356
730 1 0.739964 0.740837 0.610966
731 3 0.744789 0.762151 0.593672
732 4 0.741758 0.725284 0.602384
733 1 0.725737 0.769637 0.584654
734 3 0.729628 0.79745 0.584441
735 4 0.715002 0.767807 0.578736
736 1 0.727102 0.802155 0.615599
737 3 0.741087 0.81892 0.620951
738 4 0.721063 0.802583 0.630936
739 1 0.755057 0.79524 0.622589
740 3 0.768099 0.808951 0.608879
741 4 0.75995 0.779961 0.628884
742 1 0.761578 0.801193 0.579325
743 3 0.763523 0.825822 0.565344
744 4 0.760206 0.788492 0.566818
745 1 0.74457 0.836409 0.570531
746 3 0.750368 0.862666 0.577321
747 4 0.733427 0.834995 0.567148
748 1 0.744449 0.860991 0.60816
749 3 0.757643 0.87469 0.621116
750 4 0.736707 0.858971 0.621257
751 1 0.77113 0.850072 0.620279
752 3 0.780426 0.850345 0.644151
753 5 0.760877 0.83032 0.609759
754 1 0.764986 0.839771 0.662541
755 3 0.751325 0.821676 0.658179
756 4 0.761842 0.854218 0.672101
757 1 0.755547 0.803902 0.684373
758 3 0.745279 0.81703 0.703789
759 4 0.76191 0.794266 0.696079
760 1 0.727411 0.807169 0.690373
761 3 0.721139 0.784524 0.676109
762 4 0.722827 0.821498 0.681886
763 1 0.707749 0.775945 0.699062
764 3 0.696184 0.793494 0.686507
765 4 0.704425 0.771264 0.71586
766 1 0.684929 0.770694 0.67229
767 3 0.675113 0.774282 0.695714
768 4 0.682298 0.754179 0.665889
769 1 0.661369 0.794112 0.68297
770 3 0.648983 0.784238 0.700806
771 4 0.657027 0.80623 0.671547
772 1 0.643698 0.758765 0.68231
773 3 0.65236 0.741609 0.664038
774 5 0.651508 0.741655 0.681889
775 1 0.64029 0.715756 0.67104
776 3 0.624405 0.702425 0.670085
777 4 0.643419 0.703863 0.683489
778 1 0.618826 0.715839 0.64151
779 3 0.629434 0.710599 0.618935
780 4 0.612388 0.730726 0.641298
781 1 0.613941 0.699775 0.600439
782 3 0.611001 0.726318 0.590536
783 4 0.604495 0.690853 0.595393
784 1 0.625272 0.723585 0.567124
785 3 0.616354 0.738437 0.547803
786 4 0.635254 0.719973 0.559131
787 1 0.602821 0.714936 0.541166
788 3 0.591023 0.736393 0.538254
789 4 0.598388 0.698623 0.538089
790 1 0.585248 0.736405 0.569034
791 3 0.583378 0.764635 0.567666
792 4 0.582172 0.730536 0.585491
793 1 0.603356 0.770884 0.572629
794 3 0.601916 0.792282 0.553968
795 4 0.614069 0.770456 0.579608
796 1 0.605211 0.773724 0.528245
797 3 0.59302 0.789537 0.514453
798 4 0.609765 0.761272 0.517247
799 1 0.576834 0.772642 0.524473
800 3 0.568044 0.797462 0.525463
801 4 0.56983 0.759003 0.528799
802 1 0.573698 0.804793 0.555159
803 3 0.574685 0.832215 0.547968
804 4 0.575741 0.803225 0.572853
805 1 0.593752 0.830183 0.535625
806 3 0.588286 0.848183 0.515455
807 4 0.604894 0.826048 0.533857
808 1 0.581056 0.82486 0.49585
809 3 0.567531 0.841779 0.488636
810 4 0.580332 0.80945 0.48649
811 1 0.555891 0.834864 0.513922
812 3 0.551345 0.862274 0.514524
813 4 0.550455 0.825015 0.526607
814 1 0.566438 0.871197 0.534281
815 3 0.568089 0.896325 0.521278
816 4 0.573999 0.87122 0.547991
817 1 0.579533 0.88543 0.496876
818 3 0.571021 0.902313 0.478545
819 4 0.588361 0.877173 0.488671
820 1 0.556464 0.880678 0.471413
821 3 0.543444 0.900115 0.469527
822 4 0.552249 0.864757 0.465648
823 1 0.538114 0.898785 0.500436
824 3 0.535294 0.926396 0.504456
825 4 0.533748 0.889684 0.514524
826 1 0.553629 0.932111 0.518626
827 3 0.571157 0.927252 0.514028
828 4 0.553787 0.931303 0.536509
829 1 0.574572 0.957632 0.501533
830 3 0.575748 0.984816 0.510091
831 4 0.57418 0.963727 0.48471
832 1 0.583446 0.976535 0.539551
833 3 0.600974 0.971782 0.533338
834 4 0.578086 0.970808 0.554475
835 1 0.607872 0.987751 0.559662
836 3 0.622619 0.971711 0.558188
837 4 0.608573 0.999525 0.573466
838 1 0.615713 0.945953 0.573466
839 3 0.624451 0.928416 0.556538
840 4 0.610111 0.936769 0.58608
841 1 0.611069 0.930745 0.5321
842 3 0.625008 0.930329 0.514335
843 4 0.601163 0.931434 0.522858
844 1 0.629208 0.961873 0.516645
845 3 0.646917 0.956598 0.516292
846 4 0.627707 0.979719 0.517034
847 1 0.648146 0.94922 0.547402
848 3 0.660261 0.929367 0.54047
849 4 0.646864 0.949933 0.565438
850 1 0.646306 0.906103 0.534517
851 3 0.656861 0.89768 0.513191
852 4 0.637101 0.895066 0.535837
853 1 0.649412 0.918781 0.491689
854 3 0.665666 0.92263 0.480914
855 4 0.641949 0.928452 0.481987
856 1 0.672007 0.944028 0.5029
857 3 0.688344 0.93185 0.502181
858 4 0.67218 0.958178 0.514123
859 1 0.683813 0.908064 0.523011
860 3 0.693357 0.889648 0.507769
861 4 0.679749 0.899996 0.537912
862 1 0.678166 0.882876 0.486938
863 3 0.690033 0.882092 0.466014
864 4 0.667898 0.87848 0.48069
865 1 0.690402 0.91423 0.460956
866 3 0.708217 0.913517 0.456288
867 4 0.686648 0.931149 0.457797
868 1 0.713449 0.914064 0.487587
869 3 0.726672 0.895612 0.48207
870 4 0.713871 0.918697 0.504951
871 1 0.714836 0.869058 0.484144
872 3 0.723461 0.856832 0.462536
873 4 0.707289 0.857034 0.490652
874 1 0.712491 0.871909 0.439584
875 3 0.727321 0.87583 0.423822
876 4 0.703362 0.877898 0.430506
877 1 0.7329 0.903858 0.437745
878 3 0.750601 0.898404 0.437521
879 4 0.731965 0.92099 0.443592
880 1 0.750232 0.880309 0.464281
881 3 0.762061 0.86402 0.450123
882 4 0.748317 0.876341 0.481539
883 1 0.748302 0.838963 0.445761
884 3 0.765129 0.828389 0.444688
885 4 0.749154 0.840614 0.427889
886 1 0.765046 0.815201 0.473865
887 3 0.761646 0.787233 0.474772
888 4 0.762792 0.815652 0.491571
889 1 0.770896 0.781244 0.446397
890 3 0.787618 0.774235 0.453812
891 4 0.773746 0.782848 0.428891
892 1 0.781617 0.749688 0.473334
893 3 0.770489 0.727589 0.476541
894 5 0.775141 0.732219 0.480092
895 1 0.770806 0.728801 0.508771
896 3 0.753466 0.724797 0.515549
897 4 0.775947 0.72747 0.524591
898 1 0.74791 0.7557 0.510315
899 3 0.731618 0.746551 0.502252
900 4 0.747963 0.774009 0.509502
901 1 0.737521 0.738579 0.472603
902 3 0.726408 0.716171 0.473877
903 4 0.742346 0.739304 0.456253
904 1 0.740009 0.696995 0.489426
905 3 0.726348 0.686694 0.504857
906 4 0.749862 0.688714 0.493952
907 1 0.726604 0.710872 0.526395
908 3 0.708503 0.708187 0.526383
909 4 0.730412 0.723217 0.538348
910 1 0.705616 0.727981 0.501202
911 3 0.69197 0.710801 0.493917
912 4 0.706611 0.741573 0.48932
913 1 0.703837 0.689035 0.478639
914 3 0.692573 0.669383 0.489166
915 4 0.711926 0.681538 0.468324
916 1 0.702291 0.665962 0.516869
917 3 0.686934 0.663538 0.53098