ITEM: TIMESTEP
0
ITEM: NUMBER OF ATOMS
8634
ITEM: BOX BOUNDS ss ss ss
27.02 178.56
22.08 171.83
-7.55 125.61
ITEM: ATOMS id type xs ys zs
1 1 0.340504 0.833322 0.863998
2 3 0.339118 0.835459 0.84635
3 4 0.350798 0.830985 0.86137
4 1 0.325855 0.848414 0.848603
5 3 0.336875 0.859165 0.848678
6 4 0.317738 0.853356 0.852358
7 1 0.338261 0.860768 0.826825
8 3 0.327372 0.871586 0.831481
9 4 0.339712 0.857629 0.816236
10 1 0.338261 0.885943 0.824046
11 3 0.333311 0.882671 0.807074
12 4 0.345585 0.893222 0.823896
13 1 0.320773 0.89616 0.805948
14 3 0.324601 0.897095 0.789051
15 4 0.313911 0.903306 0.808726
16 1 0.340174 0.906043 0.791229
17 3 0.346509 0.896628 0.778011
18 4 0.347433 0.913456 0.794608
19 1 0.349347 0.88227 0.790027
20 3 0.344464 0.874457 0.776509
21 4 0.35291 0.877195 0.799339
22 1 0.326712 0.874725 0.781541
23 3 0.325063 0.87419 0.763818
24 4 0.3182 0.874858 0.788525
25 1 0.327306 0.892621 0.759688
26 3 0.334367 0.885943 0.744368
27 4 0.328428 0.902771 0.761265
28 1 0.35126 0.885543 0.753229
29 3 0.35456 0.872988 0.74204
30 4 0.359641 0.887679 0.760213
31 1 0.345849 0.860367 0.755407
32 3 0.340372 0.852421 0.741514
33 4 0.34222 0.856761 0.765245
34 1 0.325195 0.862504 0.738285
35 3 0.327702 0.858765 0.720712
36 4 0.317144 0.869115 0.740237
37 1 0.337271 0.874524 0.716506
38 3 0.345915 0.865376 0.705317
39 4 0.339382 0.884274 0.71523
40 1 0.356078 0.857496 0.720637
41 3 0.355682 0.844741 0.708771
42 4 0.361291 0.855025 0.730099
43 1 0.33958 0.838664 0.716957
44 3 0.336941 0.833589 0.700661
45 4 0.331596 0.836928 0.723791
46 1 0.328758 0.850217 0.694052
47 3 0.334037 0.846544 0.677531
48 4 0.324535 0.859299 0.694878
49 1 0.350996 0.853556 0.681886
50 3 0.355946 0.842805 0.670096
51 4 0.358519 0.8599 0.685566
52 1 0.358387 0.828915 0.683388
53 3 0.353108 0.819232 0.670171
54 4 0.360037 0.824441 0.693451
55 1 0.335093 0.821302 0.674827
56 3 0.330144 0.8199 0.658081
57 4 0.327108 0.821369 0.681736
58 1 0.333641 0.836928 0.651472
59 3 0.340108 0.830384 0.636527
60 4 0.333443 0.847546 0.650571
61 1 0.356869 0.82985 0.644037
62 3 0.357529 0.818097 0.631571
63 4 0.36525 0.830518 0.650345
64 1 0.351062 0.804808 0.645014
65 3 0.344332 0.79773 0.630445
66 4 0.350403 0.798464 0.65395
67 1 0.329682 0.808815 0.630445
68 3 0.330606 0.808681 0.612196
69 4 0.322621 0.815225 0.6345
70 1 0.342418 0.822638 0.611971
71 3 0.349017 0.814825 0.598153
72 5 0.338656 0.768921 0.57131
73 1 0.359443 0.802471 0.609492
74 3 0.356474 0.79192 0.59635
75 4 0.364854 0.79773 0.618204
76 1 0.34024 0.787245 0.602734
77 3 0.336611 0.785776 0.585011
78 4 0.333575 0.783172 0.610318
79 1 0.33021 0.803673 0.583433
80 3 0.334169 0.802604 0.566536
81 4 0.327306 0.813222 0.586813
82 1 0.35324 0.803673 0.570141
83 3 0.352514 0.793189 0.556173
84 4 0.362413 0.804407 0.575548
85 1 0.35126 0.778097 0.567663
86 3 0.34354 0.772087 0.553545
87 4 0.354164 0.77182 0.575548
88 1 0.326646 0.778364 0.560679
89 3 0.323677 0.778631 0.543256
90 4 0.319454 0.781102 0.568264
91 1 0.325525 0.796795 0.540778
92 3 0.333575 0.804608 0.528462
93 4 0.321763 0.806544 0.543932
94 1 0.346707 0.790851 0.526284
95 3 0.336677 0.784307 0.513593
96 4 0.353702 0.78404 0.529664
97 1 0.346245 0.791586 0.497146
98 3 0.361621 0.789048 0.497897
99 4 0.345387 0.799933 0.490463
100 1 0.361291 0.774558 0.485506
101 3 0.367032 0.774424 0.468834
102 4 0.357595 0.765543 0.482502
103 1 0.37825 0.788381 0.473115
104 3 0.388676 0.777295 0.477546
105 4 0.381088 0.79773 0.477095
106 1 0.396001 0.775826 0.458696
107 3 0.406691 0.767746 0.46891
108 4 0.398839 0.777763 0.447432
109 1 0.415864 0.782304 0.476044
110 3 0.418767 0.773823 0.490913
111 4 0.419955 0.791987 0.47702
112 1 0.402402 0.774958 0.499474
113 3 0.404184 0.758865 0.504806
114 4 0.393032 0.779032 0.502403
115 1 0.396397 0.752855 0.487309
116 3 0.406097 0.739699 0.486482
117 4 0.390722 0.753322 0.477771
118 1 0.420879 0.749516 0.480099
119 3 0.434143 0.749917 0.488961
120 4 0.425828 0.75379 0.470712
121 1 0.426158 0.755326 0.50751
122 3 0.437112 0.763472 0.516597
123 4 0.429788 0.746912 0.512391
124 1 0.441204 0.776027 0.501202
125 3 0.442853 0.790918 0.507735
126 4 0.444701 0.778297 0.490838
127 1 0.42497 0.791452 0.514869
128 3 0.410585 0.787646 0.521553
129 4 0.420087 0.798731 0.508261
130 1 0.417382 0.776494 0.535972
131 3 0.41659 0.776962 0.554296
132 4 0.418701 0.766077 0.53447
133 1 0.429919 0.789249 0.556248
134 3 0.422859 0.792187 0.572244
135 4 0.437706 0.795993 0.554145
136 1 0.412036 0.805008 0.56511
137 3 0.402402 0.799666 0.578102
138 4 0.408671 0.813356 0.558576
139 1 0.396199 0.785643 0.564434
140 3 0.395275 0.77783 0.580279
141 4 0.393757 0.779766 0.554896
142 1 0.413818 0.772554 0.579904
143 3 0.412102 0.772888 0.597777
144 4 0.422727 0.769816 0.575623
145 1 0.415402 0.791386 0.599429
146 3 0.405173 0.791252 0.612947
147 4 0.419097 0.800668 0.597852
148 1 0.390194 0.793255 0.600856
149 3 0.384123 0.785376 0.615125
150 4 0.383463 0.793656 0.591619
151 1 0.388742 0.767813 0.60754
152 3 0.390722 0.765543 0.625188
153 4 0.39191 0.7602 0.600631
154 1 0.408539 0.768681 0.625263
155 3 0.406031 0.772287 0.64231
156 4 0.418635 0.770017 0.622409
157 1 0.399564 0.789783 0.638555
158 3 0.38861 0.78985 0.651472
159 4 0.397651 0.798998 0.633148
160 1 0.377194 0.778564 0.640808
161 3 0.375016 0.770885 0.656729
162 4 0.371453 0.775225 0.631421
163 1 0.388082 0.757863 0.652673
164 3 0.390524 0.75813 0.670697
165 4 0.393493 0.750317 0.647942
166 1 0.400686 0.772955 0.670021
167 3 0.394087 0.776895 0.685341
168 4 0.408341 0.779432 0.665891
169 1 0.37957 0.786377 0.675728
170 3 0.372113 0.781169 0.690072
171 5 0.387422 0.734762 0.636978
172 1 0.368814 0.764007 0.682337
173 3 0.36855 0.759132 0.699159
174 4 0.367164 0.755793 0.675203
175 1 0.387488 0.761202 0.701712
176 3 0.385179 0.767947 0.718008
177 4 0.397255 0.758197 0.699309
178 1 0.386433 0.785242 0.711175
179 3 0.377194 0.788715 0.724842
180 4 0.388874 0.793656 0.705993
181 1 0.361423 0.786778 0.713803
182 3 0.355286 0.788915 0.730625
183 4 0.355418 0.783773 0.705017
184 1 0.356474 0.771285 0.736558
185 3 0.359311 0.776361 0.753004
186 4 0.356869 0.761269 0.735506
187 1 0.377062 0.780301 0.750075
188 3 0.373697 0.791786 0.762166
189 4 0.386763 0.779699 0.746395
190 1 0.367362 0.80394 0.747522
191 3 0.357067 0.80788 0.760664
192 4 0.366372 0.808414 0.737008
193 1 0.343804 0.796461 0.753905
194 3 0.338129 0.79793 0.770802
195 4 0.338393 0.789783 0.747372
196 1 0.350271 0.784775 0.778762
197 3 0.352844 0.793589 0.793707
198 4 0.356474 0.77616 0.778162
199 1 0.365052 0.805543 0.784019
200 3 0.359773 0.817496 0.794608
201 4 0.372377 0.809883 0.777711
202 1 0.343738 0.819633 0.78462
203 3 0.332321 0.820234 0.79641
204 4 0.340966 0.824574 0.775083
205 1 0.32889 0.801736 0.796861
206 3 0.327306 0.804207 0.814359
207 4 0.327834 0.792387 0.792505
208 1 0.344266 0.800134 0.818865
209 3 0.350205 0.815159 0.816086
210 4 0.352382 0.793523 0.819015
211 1 0.351062 0.818898 0.836437
212 3 0.365052 0.823573 0.83058
213 5 0.347433 0.765323 0.791331
214 1 0.374357 0.809883 0.838841
215 3 0.373169 0.801269 0.823671
216 4 0.378052 0.803072 0.84635
217 1 0.389996 0.807613 0.816536
218 3 0.394153 0.793589 0.824722
219 4 0.396859 0.814891 0.814959
220 1 0.403524 0.787245 0.808126
221 3 0.401478 0.772354 0.810303
222 4 0.411575 0.788247 0.800466
223 1 0.385575 0.76995 0.798964
224 3 0.385443 0.756327 0.789802
225 4 0.377458 0.774157 0.793932
226 1 0.40194 0.757195 0.783569
227 3 0.415798 0.759199 0.790102
228 4 0.404712 0.76187 0.774332
229 1 0.419097 0.74177 0.796035
230 3 0.428402 0.747312 0.784094
231 4 0.417975 0.731486 0.79656
232 1 0.443315 0.747446 0.797011
233 3 0.4513 0.748982 0.781391
234 4 0.44965 0.74798 0.806548
235 1 0.453016 0.731018 0.778011
236 3 0.451366 0.731018 0.760213
237 4 0.455721 0.721402 0.780715
238 1 0.432889 0.733289 0.76134
239 3 0.434539 0.743639 0.747822
240 4 0.423057 0.731352 0.765245
241 1 0.435397 0.758264 0.760363
242 3 0.445163 0.765275 0.749249
243 4 0.433549 0.765409 0.76885
244 1 0.460011 0.755993 0.755182
245 3 0.464366 0.75773 0.737459
246 4 0.466412 0.749382 0.76164
247 1 0.455391 0.741569 0.731301
248 3 0.452224 0.750985 0.716657
249 4 0.451564 0.732287 0.731
250 1 0.435331 0.757462 0.725143
251 3 0.43731 0.770818 0.713878
252 4 0.42761 0.757329 0.732803
253 1 0.451102 0.777963 0.726194
254 3 0.457239 0.782838 0.710724
255 4 0.455457 0.780968 0.735882
256 1 0.465884 0.766878 0.706443
257 3 0.46529 0.770217 0.68857
258 4 0.471757 0.758264 0.707945
259 1 0.44899 0.762204 0.685341
260 3 0.447935 0.772554 0.671748
261 4 0.440742 0.756394 0.686543
262 1 0.444767 0.787513 0.685341
263 3 0.454534 0.79626 0.674452
264 4 0.43962 0.79212 0.694127
265 1 0.469183 0.793523 0.685116
266 3 0.476706 0.795192 0.669195
267 4 0.475254 0.791252 0.693226
268 1 0.472812 0.776694 0.663337
269 3 0.470899 0.782638 0.646816
270 4 0.470503 0.766611 0.665891
271 1 0.453544 0.787713 0.648618
272 3 0.458295 0.799866 0.638029
273 4 0.443711 0.789182 0.652448
274 1 0.46364 0.811219 0.655227
275 3 0.473934 0.818364 0.644938
276 4 0.465554 0.815359 0.666041
277 1 0.485878 0.802805 0.645915
278 3 0.490893 0.804541 0.628492
279 4 0.490696 0.794791 0.65027
280 1 0.476376 0.794858 0.621057
281 3 0.47697 0.804007 0.606338
282 4 0.469645 0.787513 0.619781
283 1 0.465818 0.817295 0.613247
284 3 0.47532 0.827179 0.604911
285 4 0.457635 0.822504 0.618504
286 1 0.48832 0.827379 0.620381
287 3 0.497558 0.83025 0.605963
288 4 0.492081 0.826845 0.630895
289 1 0.502508 0.812287 0.604311
290 3 0.503168 0.811686 0.585686
291 4 0.506137 0.803205 0.60769
292 1 0.48535 0.812087 0.582007
293 3 0.485086 0.823506 0.570066
294 4 0.475386 0.807947 0.581706
295 1 0.48568 0.837596 0.583734
296 3 0.496371 0.84394 0.572019
297 4 0.482249 0.84394 0.59207
298 1 0.510954 0.836127 0.581481
299 3 0.516167 0.835326 0.564359
300 4 0.517025 0.831185 0.589967
301 1 0.511086 0.818765 0.560679
302 3 0.511086 0.824441 0.543932
303 4 0.508381 0.808948 0.56158
304 1 0.495381 0.831987 0.544608
305 3 0.501056 0.84187 0.532442
306 4 0.484822 0.832521 0.545659
307 1 0.508315 0.853623 0.546561
308 3 0.520259 0.856027 0.534695
309 4 0.51003 0.858497 0.556624
310 1 0.530553 0.842471 0.541679
311 3 0.535502 0.840801 0.524482
312 4 0.535766 0.835326 0.548663
313 1 0.520919 0.828982 0.520201
314 3 0.523624 0.834725 0.503379
315 4 0.512538 0.823038 0.521253
316 1 0.513 0.849816 0.505482
317 3 0.52237 0.860568 0.497146
318 4 0.504487 0.855159 0.508636
319 1 0.535106 0.862972 0.510439
320 3 0.545335 0.863973 0.49587
321 4 0.539528 0.863773 0.521178
322 1 0.548964 0.84621 0.495119
323 3 0.54771 0.839866 0.478672
324 4 0.553253 0.838331 0.499925
325 1 0.530355 0.845075 0.476494
326 3 0.533654 0.850885 0.459673
327 4 0.519929 0.84601 0.478372
328 1 0.535766 0.868314 0.466506
329 3 0.543949 0.88227 0.464554
330 4 0.526462 0.871519 0.463352
331 1 0.548106 0.883606 0.485206
332 3 0.561568 0.887947 0.493692
333 4 0.541441 0.887546 0.493467
334 1 0.570542 0.873122 0.488285
335 3 0.581629 0.874524 0.475668
336 4 0.57074 0.867713 0.498874
337 1 0.569883 0.854224 0.477846
338 3 0.556553 0.861703 0.472439
339 4 0.574832 0.845676 0.475819
340 1 0.553649 0.850551 0.455467
341 3 0.558532 0.835526 0.452238
342 4 0.555497 0.85576 0.44623
343 1 0.541243 0.828381 0.449234
344 3 0.526792 0.834591 0.447582
345 4 0.540979 0.821035 0.45757
346 1 0.522964 0.824841 0.430084
347 3 0.525604 0.810751 0.421223
348 4 0.524152 0.830117 0.420321
349 1 0.514188 0.800467 0.433764
350 3 0.505741 0.800467 0.418669
351 4 0.509041 0.796995 0.443001
352 1 0.51135 0.784508 0.41161
353 3 0.51399 0.770217 0.419721
354 4 0.517883 0.786711 0.403049
355 1 0.502376 0.7602 0.40748
356 3 0.499076 0.750918 0.422049
357 4 0.508975 0.753456 0.4035
358 1 0.489376 0.765409 0.431286
359 3 0.480995 0.751853 0.429483
360 4 0.482909 0.772888 0.432938
361 1 0.481787 0.748047 0.449534
362 3 0.482117 0.754324 0.466356
363 4 0.489178 0.740434 0.450736
364 1 0.465488 0.749182 0.470562
365 3 0.466675 0.744708 0.487609
366 4 0.455523 0.751119 0.469135
367 1 0.477234 0.729482 0.482878
368 3 0.485944 0.73389 0.49617
369 4 0.479543 0.719533 0.479724
370 1 0.498218 0.744441 0.483854
371 3 0.49835 0.755125 0.497597
372 4 0.504157 0.747579 0.474617
373 1 0.483503 0.764341 0.49204
374 3 0.481391 0.767012 0.509988
375 4 0.474858 0.766678 0.486107
376 1 0.473472 0.750718 0.513893
377 3 0.478949 0.745509 0.529213
378 4 0.466214 0.74404 0.512466
379 1 0.496173 0.744441 0.523355
380 3 0.500594 0.749649 0.540628
381 4 0.504949 0.743973 0.516521
382 1 0.49967 0.768147 0.535296
383 3 0.496635 0.773155 0.551892
384 4 0.498746 0.776494 0.528237
385 1 0.479543 0.765676 0.552719
386 3 0.484229 0.76207 0.56909
387 4 0.470437 0.761937 0.548813
388 1 0.48898 0.744641 0.563007
389 3 0.498614 0.743506 0.57675
390 4 0.488452 0.735159 0.558426
391 1 0.512076 0.754324 0.567438
392 3 0.514782 0.75773 0.585086
393 4 0.516761 0.759866 0.559252
394 1 0.502442 0.772888 0.584034
395 3 0.500132 0.770618 0.600781
396 4 0.496503 0.780434 0.579528
397 1 0.487924 0.756928 0.599054
398 3 0.494391 0.75212 0.613998
399 4 0.479411 0.752254 0.596275
400 1 0.507523 0.740968 0.603935
401 3 0.516959 0.743573 0.617978
402 4 0.513 0.736427 0.595449
403 1 0.521842 0.761937 0.612271
404 3 0.520193 0.767279 0.629543
405 4 0.525274 0.76975 0.605212
406 1 0.50198 0.770351 0.627816
407 3 0.501254 0.767679 0.646065
408 4 0.492807 0.772554 0.624662
409 1 0.500462 0.748581 0.643286
410 3 0.510228 0.75025 0.657555
411 4 0.49901 0.739566 0.639006
412 1 0.526198 0.749249 0.646666
413 3 0.531675 0.756728 0.66146
414 5 0.516893 0.686624 0.608923
415 1 0.529365 0.773623 0.654551
416 3 0.527451 0.779967 0.672124
417 4 0.529959 0.781436 0.646741
418 1 0.509898 0.77409 0.67325
419 3 0.507721 0.767746 0.689096
420 4 0.499934 0.775225 0.670096
421 1 0.515244 0.750451 0.683689
422 3 0.518807 0.747379 0.700811
423 4 0.518543 0.742638 0.67693
424 1 0.533193 0.756928 0.703965
425 3 0.530685 0.762471 0.720186
426 4 0.542167 0.760935 0.70036
427 1 0.516629 0.773556 0.714929
428 3 0.51069 0.771486 0.731526
429 4 0.511152 0.780568 0.708771
430 1 0.501914 0.755392 0.728447
431 3 0.507259 0.747112 0.741739
432 4 0.494655 0.75025 0.723265
433 1 0.523624 0.743306 0.733929
434 3 0.530091 0.745376 0.750676
435 4 0.530751 0.739098 0.727245
436 1 0.531081 0.764407 0.747972
437 3 0.527056 0.762738 0.765695
438 4 0.530685 0.773756 0.743166
439 1 0.509304 0.764007 0.762992
440 3 0.506995 0.754658 0.77666
441 5 0.515969 0.710756 0.72179
442 1 0.51168 0.738631 0.766897
443 3 0.519137 0.733489 0.781992
444 4 0.512274 0.73182 0.758336
445 1 0.535106 0.742437 0.77726
446 3 0.535766 0.744975 0.794833
447 4 0.543751 0.745109 0.771553
448 1 0.528507 0.761469 0.795059
449 3 0.514518 0.768414 0.790778
450 4 0.535172 0.769282 0.793256
451 1 0.507523 0.763806 0.810153
452 3 0.496833 0.77596 0.811956
453 4 0.506005 0.75793 0.819315
454 1 0.508711 0.789583 0.809402
455 3 0.506203 0.80187 0.797762
456 4 0.514386 0.795259 0.816011
457 1 0.51201 0.791853 0.781316
458 3 0.500396 0.782705 0.775758
459 4 0.520853 0.789649 0.776735
460 1 0.495315 0.796194 0.760363
461 3 0.479411 0.799399 0.759087
462 4 0.497822 0.789382 0.752704
463 1 0.474594 0.786244 0.772304
464 3 0.473736 0.778097 0.7883
465 4 0.470701 0.777696 0.767648
466 1 0.480731 0.791052 0.79979
467 3 0.467929 0.791319 0.810228
468 4 0.485152 0.799733 0.803995
469 1 0.471295 0.773422 0.817513
470 3 0.455853 0.76995 0.818564
471 4 0.470767 0.776561 0.828252
472 1 0.453412 0.769282 0.797837
473 3 0.440478 0.774825 0.791904
474 5 0.46133 0.704092 0.747819
475 1 0.446417 0.793189 0.794082
476 3 0.449122 0.790718 0.777185
477 4 0.451894 0.801603 0.797762
478 1 0.433549 0.798932 0.770727
479 3 0.430051 0.810618 0.759537
480 4 0.423915 0.794658 0.770126
481 1 0.439158 0.823973 0.770577
482 3 0.442457 0.832721 0.755332
483 4 0.444239 0.829115 0.779138
484 1 0.457107 0.824508 0.750601
485 3 0.468589 0.835058 0.755031
486 4 0.459813 0.817563 0.742415
487 1 0.477498 0.823105 0.767348
488 3 0.473472 0.836528 0.776585
489 4 0.485086 0.821569 0.760213
490 1 0.491883 0.842003 0.778312
491 3 0.493929 0.847613 0.760514
492 4 0.501386 0.840267 0.782367
493 1 0.492147 0.865509 0.768023
494 3 0.500132 0.868581 0.752478
495 4 0.491487 0.874057 0.774857
496 1 0.517157 0.863239 0.759387
497 3 0.519929 0.857696 0.743166
498 4 0.525802 0.861903 0.765545
499 1 0.512538 0.840735 0.745569
500 3 0.509568 0.842604 0.727245
501 4 0.508051 0.831987 0.750375
502 1 0.494391 0.852487 0.731226
503 3 0.49703 0.862437 0.717858
504 4 0.485416 0.855292 0.736407
505 1 0.509172 0.873255 0.727621
506 3 0.519071 0.874524 0.713728
507 4 0.512472 0.878598 0.737008
508 1 0.526726 0.85803 0.717107
509 3 0.524416 0.857295 0.698633
510 4 0.532005 0.84995 0.721989
511 1 0.509172 0.847613 0.700511
512 3 0.505741 0.853957 0.684139
513 5 0.514254 0.776653 0.656089
514 1 0.500594 0.870184 0.6921
515 3 0.507325 0.876394 0.678357
516 4 0.496503 0.87773 0.699309
517 1 0.524086 0.877396 0.686467
518 3 0.528969 0.874858 0.669045
519 4 0.531279 0.879466 0.693977
520 1 0.527451 0.855693 0.671448
521 3 0.524284 0.85616 0.65395
522 4 0.527649 0.846477 0.676329
523 1 0.506863 0.8601 0.655452
524 3 0.505213 0.871586 0.643136
525 4 0.497229 0.856227 0.65733
526 1 0.506929 0.886077 0.655002
527 3 0.511482 0.892955 0.639606
528 4 0.506401 0.891285 0.664764
529 1 0.529233 0.89429 0.645164
530 3 0.531807 0.898497 0.627741
531 4 0.537878 0.894023 0.650871
532 1 0.532665 0.88 0.620832
533 3 0.520259 0.881135 0.610018
534 4 0.539989 0.872988 0.61948
535 1 0.511086 0.866043 0.614749
536 3 0.5 0.873189 0.605062
537 4 0.508117 0.857696 0.621358
538 1 0.492675 0.882604 0.621283
539 3 0.488914 0.898164 0.616777
540 4 0.487132 0.881937 0.63097
541 1 0.505741 0.90384 0.613848
542 3 0.506995 0.904908 0.595825
543 4 0.510756 0.908514 0.621959
544 1 0.525472 0.9001 0.595449
545 3 0.521644 0.898965 0.578177
546 4 0.534776 0.897696 0.598828
547 1 0.516431 0.880134 0.579904
548 3 0.506467 0.882538 0.566987
549 4 0.514452 0.870985 0.585386
550 1 0.493137 0.891619 0.577576
551 3 0.492411 0.899098 0.561655
552 4 0.48601 0.893756 0.585761
553 1 0.503563 0.912654 0.566762
554 3 0.506599 0.911119 0.549114
555 4 0.51003 0.918865 0.571793
556 1 0.519137 0.897763 0.550165
557 3 0.514056 0.892888 0.533494
558 4 0.525802 0.891085 0.554596
559 1 0.49835 0.883539 0.541153
560 3 0.490564 0.889082 0.526735
561 4 0.492675 0.879332 0.548738
562 1 0.486274 0.905042 0.535296
563 3 0.486274 0.91172 0.519
564 4 0.482513 0.912521 0.542956
565 1 0.504025 0.914457 0.517197
566 3 0.504619 0.910184 0.499474
567 4 0.513858 0.916795 0.520126
568 1 0.50264 0.89202 0.502103
569 3 0.492675 0.893088 0.48866
570 4 0.503761 0.881803 0.505557
571 1 0.477366 0.895626 0.500526
572 3 0.472878 0.904641 0.485581
573 4 0.471295 0.894691 0.509162
574 1 0.480995 0.920735 0.494593
575 3 0.481985 0.92788 0.477846
576 4 0.485878 0.927012 0.502478
577 1 0.496239 0.917596 0.470937
578 3 0.48766 0.905576 0.465305
579 4 0.506335 0.914725 0.471538
580 1 0.483569 0.913723 0.44653
581 3 0.486076 0.909115 0.429033
582 4 0.4773 0.921803 0.443902
583 1 0.504289 0.909048 0.430985
584 3 0.509502 0.897429 0.440898
585 4 0.512538 0.915593 0.431511
586 1 0.507985 0.884007 0.427456
587 3 0.513132 0.871987 0.417843
588 4 0.499604 0.879599 0.430835
589 1 0.517553 0.883139 0.401021
590 3 0.530619 0.881202 0.39201
591 4 0.512802 0.888881 0.392986
592 1 0.541375 0.880534 0.408831
593 3 0.537746 0.867846 0.41927
594 4 0.546984 0.886144 0.417017
595 1 0.54705 0.855492 0.406278
596 3 0.560776 0.856628 0.398693
597 4 0.540517 0.850818 0.398994
598 1 0.567969 0.841402 0.406428
599 3 0.57437 0.830651 0.394638
600 4 0.57239 0.83813 0.416416
601 1 0.556883 0.824508 0.389757
602 3 0.556421 0.834257 0.375038
603 4 0.54705 0.821302 0.390207
604 1 0.564141 0.821302 0.361895
605 3 0.550152 0.82778 0.355362
606 4 0.568167 0.813022 0.356338
607 1 0.557741 0.836861 0.340493
608 3 0.571268 0.839666 0.331331
609 4 0.556487 0.84581 0.34605
610 1 0.56203 0.841202 0.313232
611 3 0.557477 0.856828 0.316161
612 4 0.555497 0.838998 0.304671
613 1 0.573116 0.864107 0.306323
614 3 0.57272 0.865309 0.323896
615 4 0.565725 0.869316 0.301817
616 1 0.585654 0.879332 0.323971
617 3 0.572522 0.883205 0.333584
618 5 0.581299 0.816771 0.308733
619 1 0.579715 0.882404 0.351832
620 3 0.566451 0.873723 0.34988
621 4 0.575162 0.891619 0.353184
622 1 0.568431 0.863506 0.366326
623 3 0.552197 0.862304 0.366326
624 4 0.572126 0.856895 0.374287
625 1 0.548964 0.878397 0.374812
626 3 0.548964 0.88581 0.358591
627 4 0.548898 0.886144 0.381796
628 1 0.532005 0.881202 0.354686
629 3 0.519203 0.880267 0.364749
630 4 0.529299 0.87419 0.34635
631 1 0.51267 0.896494 0.361144
632 3 0.507193 0.899566 0.345149
633 4 0.513858 0.906711 0.364148
634 1 0.490498 0.893088 0.349805
635 3 0.474264 0.892688 0.349955
636 4 0.491685 0.885342 0.342595
637 1 0.472614 0.88975 0.370832
638 3 0.458493 0.89616 0.368279
639 4 0.474396 0.888881 0.382397
640 1 0.463508 0.913656 0.370607
641 3 0.454731 0.919132 0.356413
642 4 0.468259 0.921803 0.376164
643 1 0.467995 0.916461 0.34252
644 3 0.483569 0.915659 0.343872
645 4 0.467269 0.926945 0.341244
646 1 0.485812 0.907846 0.324647
647 3 0.487462 0.923139 0.318865
648 4 0.484229 0.901102 0.317062
649 1 0.505279 0.923205 0.321944
650 3 0.516893 0.915192 0.314359
651 4 0.5097 0.924741 0.332307
652 1 0.508447 0.935492 0.303845
653 3 0.516761 0.941235 0.316612
654 4 0.509436 0.93783 0.292881
655 1 0.507193 0.957796 0.317813
656 3 0.492213 0.953389 0.32292
657 4 0.506665 0.966277 0.312556
658 1 0.493335 0.960534 0.341394
659 3 0.477432 0.961269 0.339742
660 4 0.496569 0.963673 0.352133
661 1 0.477696 0.978765 0.332908
662 3 0.479609 0.972487 0.31571
663 4 0.479477 0.988848 0.33073
664 1 0.460868 0.967813 0.316386
665 3 0.459615 0.981102 0.30745
666 4 0.451828 0.96374 0.320742
667 1 0.456843 0.973556 0.289126
668 3 0.441138 0.97409 0.291829
669 4 0.458889 0.967546 0.280114
670 1 0.438564 0.989583 0.280039
671 3 0.42959 0.991586 0.265245
672 4 0.439224 0.999733 0.283118
673 1 0.440808 0.980301 0.25413
674 3 0.442787 0.965543 0.260664
675 4 0.44932 0.983105 0.248198
676 1 0.434539 0.957863 0.243692
677 3 0.449716 0.954057 0.242941
678 4 0.430117 0.956661 0.233253
679 1 0.446747 0.936895 0.2497
680 3 0.446747 0.932421 0.232427
681 4 0.444569 0.928948 0.257585
682 1 0.46232 0.924207 0.233929
683 3 0.470635 0.918998 0.247597
684 4 0.466873 0.931686 0.227396
685 1 0.47763 0.904174 0.235506
686 3 0.48865 0.914591 0.241814
687 4 0.481985 0.900501 0.225819
688 1 0.494721 0.901102 0.256233
689 3 0.502178 0.889349 0.24632
690 4 0.491421 0.897896 0.266371
691 1 0.518147 0.891619 0.255858
692 3 0.516101 0.87793 0.264869
693 4 0.52666 0.895025 0.260363
694 1 0.519203 0.878063 0.237534
695 3 0.509964 0.865776 0.231226
696 4 0.528111 0.875392 0.232878
697 1 0.497888 0.877997 0.22304
698 3 0.483833 0.871519 0.225894
699 4 0.498614 0.872254 0.213202
700 1 0.485086 0.869983 0.246846
701 3 0.47796 0.884474 0.247597
702 4 0.488914 0.86798 0.25736
703 1 0.461066 0.878063 0.250375
704 3 0.464366 0.882604 0.267047
705 4 0.45328 0.871319 0.251202
706 1 0.455919 0.89823 0.266221
707 3 0.451234 0.89429 0.282592
708 4 0.453742 0.907179 0.26119
709 1 0.432955 0.892955 0.276209
710 3 0.430777 0.906177 0.285221
711 5 0.440544 0.819921 0.265719
712 1 0.412894 0.907312 0.281241
713 3 0.40194 0.89803 0.289276
714 4 0.407417 0.912387 0.273806
715 1 0.406031 0.906377 0.308576
716 3 0.40062 0.921269 0.312707
717 4 0.414148 0.906244 0.31571
718 1 0.385773 0.914725 0.322319
719 3 0.391646 0.916528 0.338615
720 4 0.378184 0.909382 0.325774
721 1 0.387422 0.935092 0.338916
722 3 0.402006 0.936027 0.333208
723 5 0.385509 0.870407 0.327847
724 1 0.406691 0.947045 0.350406
725 3 0.410519 0.933489 0.358516
726 4 0.407021 0.955192 0.35769
727 1 0.428534 0.935426 0.356789
728 3 0.428864 0.943172 0.37286
729 4 0.437772 0.937028 0.352358
730 1 0.429392 0.926945 0.383674
731 3 0.434341 0.912387 0.379619
732 4 0.420087 0.928548 0.38863
733 1 0.444239 0.91192 0.398618
734 3 0.432031 0.901436 0.400571
735 4 0.448264 0.914858 0.408756
736 1 0.442853 0.886077 0.397417
737 3 0.453874 0.879599 0.408756
738 4 0.445691 0.88227 0.387504
739 1 0.442853 0.868982 0.419195
740 3 0.428996 0.862104 0.417318
741 4 0.442259 0.873122 0.429408
742 1 0.434605 0.844875 0.422499
743 3 0.430315 0.83606 0.436768
744 4 0.436452 0.836594 0.415515
745 1 0.441732 0.843806 0.44991
746 3 0.442853 0.851886 0.46568
747 4 0.451828 0.841603 0.451637
748 1 0.42926 0.863907 0.462376
749 3 0.432889 0.876461 0.472965
750 4 0.422661 0.859366 0.470261
751 1 0.448594 0.879666 0.463653
752 3 0.448726 0.894558 0.469285
753 4 0.456975 0.87793 0.456819
754 1 0.436386 0.900301 0.455467
755 3 0.431503 0.908781 0.469736
756 4 0.430051 0.902705 0.446681
757 1 0.418437 0.896093 0.474992
758 3 0.421143 0.902771 0.491063
759 4 0.412498 0.887813 0.474617
760 1 0.435397 0.891219 0.495194
761 3 0.439356 0.903573 0.507134
762 4 0.442721 0.883806 0.494217
763 1 0.446879 0.913389 0.491214
764 3 0.440874 0.927546 0.495494
765 4 0.453478 0.914925 0.482652
766 1 0.424046 0.925275 0.486858
767 3 0.41758 0.932821 0.501427
768 4 0.416656 0.92227 0.479724
769 1 0.417118 0.918998 0.513367
770 3 0.422925 0.922404 0.529814
771 4 0.410981 0.911052 0.51562
772 1 0.440742 0.922671 0.525008
773 3 0.443051 0.931352 0.539877
774 4 0.44899 0.921803 0.518249
775 1 0.438036 0.947245 0.533043
776 3 0.435265 0.948581 0.550315
777 5 0.438498 0.885924 0.503051
778 1 0.417909 0.942638 0.549039
779 3 0.420549 0.937763 0.566086
780 4 0.408473 0.941302 0.545584
781 1 0.42959 0.922471 0.560529
782 3 0.439224 0.924541 0.574572
783 4 0.431635 0.913389 0.555572
784 1 0.449188 0.937362 0.565635
785 3 0.449914 0.944574 0.58088
786 4 0.454665 0.941836 0.55745
787 1 0.435001 0.953456 0.579979
788 3 0.430711 0.950184 0.597026
789 4 0.427808 0.959933 0.574196
790 1 0.4253 0.933356 0.594398
791 3 0.433549 0.929816 0.609342
792 4 0.421605 0.924407 0.590267
793 1 0.449452 0.926544 0.599429
794 3 0.455325 0.932821 0.614299
795 4 0.455721 0.922938 0.590868
796 1 0.456315 0.949917 0.608216
797 3 0.454203 0.952654 0.626164
798 4 0.455061 0.95773 0.601081
799 1 0.435859 0.951853 0.624962
800 3 0.436386 0.94798 0.642535
801 4 0.425894 0.951786 0.620907
802 1 0.441204 0.930551 0.639381
803 3 0.452752 0.930351 0.651172
804 4 0.44028 0.921002 0.635626
805 1 0.466741 0.934023 0.63818
806 3 0.475254 0.940434 0.651847
807 4 0.472746 0.933823 0.628567
808 1 0.469579 0.957663 0.648768
809 3 0.475188 0.960801 0.664539
810 4 0.466346 0.966344 0.643286
811 1 0.461132 0.953122 0.675804
812 3 0.470305 0.943639 0.686768
813 4 0.451366 0.951786 0.677981
814 1 0.470107 0.929616 0.673926
815 3 0.484229 0.927813 0.681962
816 4 0.467797 0.923005 0.665816
817 1 0.492741 0.940902 0.66912
818 3 0.501188 0.946778 0.683013
819 4 0.494655 0.946578 0.659808
820 1 0.489046 0.956661 0.691274
821 3 0.496437 0.952721 0.706368
822 4 0.481721 0.963472 0.691874
823 1 0.48535 0.93823 0.710949
824 3 0.499076 0.932888 0.717708
825 4 0.477498 0.931953 0.712301
826 1 0.503629 0.924942 0.699534
827 3 0.518477 0.926277 0.705392
828 4 0.504685 0.920735 0.688645
829 1 0.521182 0.943773 0.70006
830 3 0.529167 0.946845 0.71553
831 4 0.522304 0.952521 0.693602
832 1 0.513924 0.950451 0.72717
833 3 0.521117 0.943239 0.741439
834 4 0.505081 0.954257 0.7304
835 1 0.517949 0.925543 0.734305
836 3 0.532995 0.922871 0.740312
837 4 0.513132 0.917396 0.728973
838 1 0.541243 0.927279 0.72274
839 3 0.553253 0.930684 0.733629
840 4 0.543817 0.929349 0.711325
841 1 0.548502 0.948447 0.737083
842 3 0.554639 0.947646 0.754205
843 4 0.546654 0.957997 0.734755
844 1 0.538406 0.939699 0.761265
845 3 0.547644 0.929883 0.771853
846 4 0.528375 0.937496 0.761265
847 1 0.55002 0.916394 0.756308
848 3 0.54903 0.901102 0.762842
849 4 0.55972 0.917262 0.758561
850 1 0.530619 0.903038 0.767423
851 3 0.520589 0.913322 0.759012
852 4 0.531609 0.902771 0.778837
853 1 0.505345 0.906444 0.765545
854 3 0.505741 0.91773 0.778011
855 4 0.498548 0.899566 0.769075
856 1 0.496898 0.930618 0.767197
857 3 0.481985 0.928948 0.763518
858 4 0.502178 0.936427 0.759763
859 1 0.476442 0.942838 0.776359
860 3 0.472483 0.951987 0.762842
861 4 0.477234 0.949716 0.785296
862 1 0.456909 0.942705 0.757435
863 3 0.444767 0.952321 0.753004
864 4 0.453082 0.933489 0.753605
865 1 0.442655 0.958998 0.77343
866 3 0.43698 0.972688 0.765996
867 4 0.442787 0.96 0.785221
868 1 0.453214 0.979566 0.763442
869 3 0.446285 0.987379 0.74985
870 4 0.46331 0.981836 0.764193
871 1 0.44833 0.97202 0.735882
872 3 0.43896 0.960601 0.728672
873 4 0.455655 0.968013 0.729573
874 1 0.426884 0.961068 0.745419
875 3 0.417514 0.954791 0.733028
876 5 0.434341 0.884444 0.708489
877 1 0.409727 0.970417 0.72732
878 3 0.407945 0.963673 0.7114
879 4 0.406625 0.980167 0.728071
880 1 0.42596 0.968481 0.705092
881 3 0.4253 0.955459 0.695329
882 4 0.434803 0.973556 0.706744
883 1 0.430975 0.944174 0.710348
884 3 0.420813 0.934491 0.702764
885 4 0.435792 0.940902 0.719435
886 1 0.406757 0.938698 0.714329
887 3 0.398971 0.933222 0.700736
888 4 0.401346 0.94177 0.723265
889 1 0.398839 0.94818 0.689697
890 3 0.398707 0.936227 0.676855
891 4 0.3993 0.957663 0.686092
892 1 0.417316 0.93389 0.676855
893 3 0.414808 0.917796 0.673551
894 4 0.427082 0.936561 0.677831
895 1 0.411179 0.913389 0.693376
896 3 0.400422 0.903639 0.685116
897 4 0.410123 0.913122 0.704866
898 1 0.386763 0.916394 0.68474
899 3 0.383199 0.907713 0.669646
900 4 0.380758 0.925075 0.686618
901 1 0.395935 0.915993 0.656879
902 3 0.395671 0.901235 0.649294
903 4 0.402072 0.923205 0.652373
904 1 0.408011 0.89409 0.662661
905 3 0.40095 0.880601 0.657555
906 5 0.40491 0.823415 0.624405
907 1 0.387027 0.882938 0.671598
908 3 0.377392 0.876661 0.659507
909 4 0.381879 0.884674 0.681436
910 1 0.373037 0.892154 0.649369
911 3 0.372971 0.882805 0.634725
912 4 0.370727 0.901703 0.648168
913 1 0.39092 0.885409 0.629769
914 3 0.389204 0.870718 0.622634
915 4 0.401016 0.888214 0.629769
916 1 0.390128 0.860835 0.640583
917 3 0.382407 0.850351 0.630369