ITEM: TIMESTEP
0
ITEM: NUMBER OF ATOMS
8634
ITEM: BOX BOUNDS ss ss ss
33.52 177.53
43.76 185.14
-0.13 123.25
ITEM: ATOMS id type xs ys zs
1 1 0.317756 0.941293 0.7917
2 3 0.302062 0.93903 0.798833
3 4 0.319908 0.945395 0.780354
4 1 0.298313 0.923398 0.785946
5 3 0.30484 0.913354 0.799562
6 4 0.297688 0.917174 0.775977
7 1 0.287272 0.910454 0.809775
8 3 0.2838 0.899137 0.795591
9 4 0.278731 0.91491 0.81561
10 1 0.283314 0.883788 0.809937
11 3 0.273453 0.878554 0.795672
12 4 0.284008 0.876503 0.818852
13 1 0.257899 0.887183 0.802967
14 3 0.253385 0.886405 0.784568
15 4 0.250677 0.892347 0.810747
16 1 0.263662 0.90331 0.778894
17 3 0.267412 0.895105 0.762766
18 4 0.26887 0.913142 0.779381
19 1 0.283175 0.885557 0.771114
20 3 0.279008 0.872896 0.758551
21 4 0.291924 0.884496 0.777436
22 1 0.266093 0.863984 0.772816
23 3 0.256927 0.860447 0.756525
24 4 0.261996 0.861296 0.784163
25 1 0.248386 0.878342 0.754498
26 3 0.250052 0.876786 0.734722
27 4 0.243455 0.88782 0.757821
28 1 0.268523 0.882162 0.734317
29 3 0.269773 0.870137 0.719809
30 4 0.277758 0.886901 0.736748
31 1 0.271787 0.854859 0.734884
32 3 0.265398 0.846442 0.720862
33 4 0.272203 0.847857 0.744853
34 1 0.246788 0.85111 0.726212
35 3 0.242414 0.852313 0.707165
36 4 0.238664 0.852737 0.733912
37 1 0.247483 0.870845 0.703274
38 3 0.251024 0.865398 0.68593
39 4 0.248386 0.881384 0.704409
40 1 0.269217 0.857618 0.692333
41 3 0.266787 0.844745 0.680742
42 4 0.279147 0.857193 0.696547
43 1 0.257552 0.834559 0.695007
44 3 0.250122 0.827981 0.679203
45 4 0.25401 0.830103 0.705706
46 1 0.238595 0.84333 0.676042
47 3 0.2404 0.842057 0.656427
48 4 0.230748 0.850545 0.677906
49 1 0.257065 0.852949 0.656184
50 3 0.261301 0.84333 0.641271
51 4 0.264704 0.859669 0.659507
52 1 0.265398 0.827628 0.653915
53 3 0.258177 0.819494 0.639488
54 4 0.268801 0.820837 0.662992
55 1 0.240539 0.818857 0.645567
56 3 0.23672 0.819211 0.62733
57 4 0.230817 0.818928 0.65197
58 1 0.239497 0.838308 0.624656
59 3 0.247691 0.837247 0.607716
60 4 0.239081 0.848918 0.627492
61 1 0.264079 0.830811 0.616145
62 3 0.264565 0.819989 0.600178
63 4 0.272898 0.82982 0.622629
64 1 0.255677 0.805701 0.611282
65 3 0.248802 0.803225 0.593613
66 4 0.252344 0.799264 0.620198
67 1 0.233734 0.814189 0.596855
68 3 0.233595 0.818362 0.578214
69 4 0.224984 0.817937 0.602691
70 1 0.246927 0.832154 0.578943
71 3 0.253038 0.828123 0.561436
72 5 0.24283 0.767503 0.537368
73 1 0.265051 0.813128 0.570676
74 3 0.262343 0.803296 0.555114
75 4 0.272759 0.808177 0.577889
76 1 0.246302 0.794738 0.563868
77 3 0.240747 0.795586 0.545469
78 4 0.240053 0.789291 0.571487
79 1 0.234567 0.813694 0.546037
80 3 0.238664 0.812562 0.527719
81 4 0.231165 0.823879 0.549603
82 1 0.258385 0.817584 0.531123
83 3 0.262065 0.808884 0.515724
84 4 0.267204 0.820696 0.536878
85 1 0.259079 0.79106 0.525612
86 3 0.252413 0.784694 0.508753
87 4 0.260607 0.782289 0.533393
88 1 0.234498 0.79106 0.513779
89 3 0.227206 0.796152 0.496596
90 4 0.227206 0.788867 0.522451
91 1 0.230331 0.815179 0.501216
92 3 0.243872 0.814047 0.491166
93 4 0.230192 0.824586 0.507781
94 1 0.2354 0.823101 0.471876
95 3 0.245261 0.836257 0.476333
96 4 0.228248 0.827628 0.464743
97 1 0.26026 0.829396 0.4645
98 3 0.253177 0.832084 0.446669
99 4 0.269773 0.82402 0.465878
100 1 0.26269 0.848352 0.44132
101 3 0.268454 0.847432 0.423083
102 4 0.264634 0.859315 0.443832
103 1 0.283591 0.83463 0.428676
104 3 0.281439 0.817796 0.432242
105 4 0.293521 0.835054 0.43289
106 1 0.282758 0.813198 0.409548
107 3 0.287827 0.798203 0.414411
108 4 0.283175 0.814613 0.397066
109 1 0.305118 0.802942 0.42049
110 3 0.303729 0.79113 0.435403
111 4 0.3147 0.807328 0.420571
112 1 0.294146 0.802942 0.448614
113 3 0.2838 0.790211 0.453639
114 4 0.292132 0.811359 0.455584
115 1 0.269217 0.794738 0.439942
116 3 0.265607 0.778469 0.44059
117 4 0.264148 0.80075 0.431269
118 1 0.278731 0.773377 0.425109
119 3 0.289424 0.761352 0.430864
120 4 0.282966 0.773377 0.413195
121 1 0.29616 0.770972 0.449911
122 3 0.310256 0.761494 0.450073
123 4 0.291438 0.764182 0.457368
124 1 0.318033 0.768921 0.432242
125 3 0.333588 0.772952 0.437186
126 4 0.318936 0.770194 0.419922
127 1 0.325811 0.78724 0.452586
128 3 0.31102 0.787735 0.461501
129 4 0.328241 0.79785 0.449506
130 1 0.318728 0.782996 0.481521
131 3 0.322408 0.783562 0.500162
132 4 0.314839 0.772669 0.482169
133 1 0.338518 0.793323 0.499514
134 3 0.335046 0.797213 0.518155
135 4 0.347406 0.79785 0.494327
136 1 0.323103 0.813269 0.512482
137 3 0.314561 0.809945 0.529421
138 4 0.319214 0.821191 0.505187
139 1 0.304493 0.795799 0.519452
140 3 0.304632 0.788372 0.537607
141 4 0.297618 0.790777 0.51159
142 1 0.322061 0.779813 0.533636
143 3 0.324422 0.782643 0.552521
144 4 0.331227 0.775569 0.528611
145 1 0.327616 0.801811 0.551305
146 3 0.31845 0.802801 0.567434
147 4 0.331921 0.811855 0.548468
148 1 0.301507 0.804499 0.55706
149 3 0.293382 0.796223 0.571243
150 4 0.293868 0.80754 0.549036
151 1 0.300812 0.778823 0.564435
152 3 0.303035 0.775357 0.583239
153 4 0.303382 0.771184 0.556249
154 1 0.32088 0.78335 0.584374
155 3 0.316992 0.78816 0.60188
156 4 0.33088 0.78526 0.579916
157 1 0.308659 0.80464 0.596126
158 3 0.299146 0.800467 0.611688
159 4 0.305673 0.813694 0.588912
160 1 0.285883 0.790423 0.600016
161 3 0.283383 0.781864 0.616226
162 4 0.280189 0.785047 0.590695
163 1 0.296924 0.76885 0.612417
164 3 0.300257 0.768355 0.63195
165 4 0.302757 0.761989 0.605609
166 1 0.309909 0.785543 0.631869
167 3 0.302826 0.78816 0.648484
168 4 0.317478 0.792969 0.629275
169 1 0.286786 0.79686 0.639245
170 3 0.278175 0.789221 0.653915
171 5 0.294702 0.73498 0.600699
172 1 0.276717 0.771396 0.643216
173 3 0.277481 0.764747 0.660561
174 4 0.276439 0.763687 0.633976
175 1 0.29734 0.766233 0.661777
176 3 0.297063 0.769274 0.680337
177 4 0.307756 0.765384 0.6574
178 1 0.294563 0.789291 0.677257
179 3 0.284077 0.79106 0.692657
180 4 0.297688 0.798416 0.672313
181 1 0.268384 0.786603 0.68131
182 3 0.262412 0.784764 0.699384
183 4 0.260746 0.78434 0.672394
184 1 0.26887 0.768426 0.704409
185 3 0.271648 0.77366 0.722727
186 4 0.271717 0.757674 0.702707
187 1 0.288661 0.782643 0.718188
188 3 0.283522 0.79396 0.731399
189 4 0.298868 0.784835 0.714784
190 1 0.273662 0.80464 0.714541
191 3 0.263384 0.808177 0.730021
192 4 0.269565 0.808035 0.703518
193 1 0.252482 0.792403 0.729373
194 3 0.251927 0.793606 0.748176
195 4 0.245955 0.784552 0.72686
196 1 0.268454 0.782855 0.752067
197 3 0.272203 0.79106 0.769168
198 4 0.277342 0.776135 0.751499
199 1 0.277481 0.808106 0.757416
200 3 0.270051 0.817725 0.770952
201 4 0.281508 0.814472 0.748095
202 1 0.252344 0.81624 0.762522
203 3 0.246233 0.816594 0.780597
204 4 0.243733 0.814472 0.754985
205 1 0.248108 0.796435 0.782704
206 3 0.252691 0.79403 0.801264
207 4 0.24658 0.786108 0.778327
208 1 0.271023 0.800042 0.798509
209 3 0.277134 0.812916 0.809775
210 4 0.280258 0.795233 0.79397
211 1 0.26894 0.827345 0.798185
212 3 0.281439 0.838237 0.803048
213 5 0.268523 0.761899 0.750457
214 1 0.294632 0.82982 0.790647
215 3 0.295396 0.81822 0.776544
216 4 0.301229 0.826213 0.799724
217 1 0.311576 0.825364 0.76698
218 3 0.320811 0.818503 0.781407
219 4 0.316714 0.832225 0.758713
220 1 0.325116 0.802164 0.767953
221 3 0.324769 0.787523 0.777598
222 4 0.33206 0.801174 0.758551
223 1 0.30852 0.780591 0.770708
224 3 0.308867 0.763687 0.77006
225 4 0.299076 0.781157 0.765359
226 1 0.325047 0.761706 0.757902
227 3 0.339004 0.766799 0.767872
228 4 0.327963 0.762484 0.746069
229 1 0.346851 0.748691 0.769087
230 3 0.353795 0.756967 0.753283
231 4 0.346643 0.738011 0.766088
232 1 0.37046 0.763545 0.764711
233 3 0.376016 0.767152 0.747042
234 4 0.378515 0.762767 0.773383
235 1 0.380182 0.748267 0.742584
236 3 0.376016 0.749752 0.724104
237 4 0.384418 0.738577 0.744691
238 1 0.357475 0.746428 0.727508
239 3 0.354489 0.758523 0.713973
240 4 0.34824 0.742609 0.732128
241 1 0.353587 0.77366 0.729211
242 3 0.359975 0.781582 0.714784
243 4 0.352892 0.779955 0.739828
244 1 0.378654 0.777267 0.719728
245 3 0.381085 0.779389 0.700681
246 4 0.387334 0.774013 0.725887
247 1 0.374766 0.76114 0.694521
248 3 0.367266 0.769769 0.680013
249 4 0.373655 0.75046 0.692819
250 1 0.351017 0.773518 0.690955
251 3 0.348448 0.78625 0.678716
252 4 0.342268 0.77175 0.698979
253 1 0.359072 0.799194 0.691279
254 3 0.365808 0.805135 0.675231
255 4 0.362267 0.804357 0.701816
256 1 0.379487 0.79106 0.673691
257 3 0.380668 0.795021 0.654563
258 4 0.386918 0.783703 0.676609
259 1 0.364697 0.78533 0.648403
260 3 0.359836 0.796789 0.63503
261 4 0.356781 0.777479 0.648403
262 1 0.352684 0.80952 0.649619
263 3 0.361155 0.82013 0.637218
264 4 0.346712 0.813269 0.659426
265 1 0.377335 0.820413 0.650349
266 3 0.386223 0.822252 0.634138
267 4 0.383307 0.818786 0.659831
268 1 0.385529 0.803579 0.628627
269 3 0.384557 0.810652 0.61112
270 4 0.384765 0.792828 0.629113
271 1 0.365044 0.810652 0.610067
272 3 0.364975 0.824445 0.597909
273 4 0.35435 0.808459 0.612903
274 1 0.369349 0.837601 0.616145
275 3 0.380112 0.844603 0.602853
276 4 0.37046 0.841632 0.627654
277 1 0.395528 0.834489 0.609904
278 3 0.399278 0.837459 0.59102
279 4 0.401361 0.827274 0.616064
280 1 0.388445 0.82112 0.583968
281 3 0.386015 0.830103 0.567677
282 4 0.383237 0.811359 0.583644
283 1 0.372266 0.841279 0.576268
284 3 0.379349 0.852949 0.56484
285 4 0.363516 0.845028 0.58178
286 1 0.391362 0.860164 0.581132
287 3 0.401361 0.863913 0.567515
288 4 0.394903 0.86363 0.592154
289 1 0.409069 0.846371 0.56557
290 3 0.409208 0.850191 0.547009
291 4 0.413791 0.836823 0.568244
292 1 0.391431 0.844179 0.541984
293 3 0.391639 0.856486 0.528287
294 4 0.381918 0.838308 0.541498
295 1 0.386709 0.870349 0.543848
296 3 0.395736 0.880818 0.532907
297 4 0.383098 0.875301 0.554223
298 1 0.413235 0.875371 0.543281
299 3 0.420596 0.876362 0.525855
300 4 0.42004 0.871693 0.551953
301 1 0.417193 0.857547 0.520344
302 3 0.416221 0.863064 0.501783
303 4 0.415179 0.847291 0.521478
304 1 0.397958 0.868652 0.501945
305 3 0.402403 0.881171 0.491085
306 4 0.387543 0.867449 0.50308
307 1 0.406222 0.894186 0.507862
308 3 0.414971 0.902179 0.495218
309 4 0.407819 0.89843 0.519047
310 1 0.429762 0.889093 0.497082
311 3 0.431914 0.888527 0.478279
312 4 0.43747 0.883505 0.502594
313 1 0.421082 0.872471 0.47374
314 3 0.420526 0.880747 0.456638
315 4 0.415179 0.862993 0.475118
316 1 0.405319 0.892418 0.463852
317 3 0.411291 0.903805 0.451208
318 4 0.397334 0.896591 0.470822
319 1 0.42504 0.909959 0.466283
320 3 0.436567 0.912364 0.45137
321 4 0.428651 0.913425 0.477063
322 1 0.442122 0.89362 0.452018
323 3 0.444205 0.89171 0.432404
324 4 0.445039 0.884283 0.456395
325 1 0.425109 0.891993 0.428351
326 3 0.420457 0.900976 0.412222
327 4 0.415804 0.887254 0.430216
328 1 0.424832 0.918447 0.42049
329 3 0.435803 0.929339 0.411898
330 4 0.420457 0.926086 0.427622
331 1 0.451496 0.91873 0.417734
332 3 0.448024 0.912293 0.400308
333 4 0.458232 0.912364 0.42438
334 1 0.463509 0.922832 0.389934
335 3 0.453927 0.917951 0.37502
336 4 0.468579 0.913637 0.387583
337 1 0.442678 0.933725 0.375263
338 3 0.427818 0.929764 0.370563
339 4 0.441983 0.944405 0.376236
340 1 0.422957 0.919791 0.389771
341 3 0.418374 0.911161 0.374048
342 4 0.41393 0.926227 0.389934
343 1 0.418513 0.892701 0.386286
344 3 0.417124 0.886193 0.368942
345 4 0.409138 0.888244 0.389204
346 1 0.43747 0.885486 0.366591
347 3 0.43865 0.873745 0.352731
348 4 0.447052 0.887891 0.370481
349 1 0.435595 0.858608 0.367158
350 3 0.419763 0.859174 0.359945
351 4 0.435872 0.851181 0.37656
352 1 0.423165 0.845523 0.344788
353 3 0.414277 0.831376 0.343167
354 4 0.42622 0.846089 0.332712
355 1 0.425665 0.820837 0.357838
356 3 0.421221 0.823101 0.37656
357 4 0.43497 0.816169 0.358972
358 1 0.405389 0.81242 0.375426
359 3 0.406222 0.795233 0.375182
360 4 0.39525 0.813623 0.371697
361 1 0.409624 0.793747 0.397066
362 3 0.408374 0.802306 0.414087
363 4 0.419624 0.788584 0.396742
364 1 0.394973 0.788938 0.423002
365 3 0.396639 0.785472 0.441644
366 4 0.384418 0.786321 0.421624
367 1 0.411846 0.772104 0.437915
368 3 0.419346 0.778611 0.454044
369 4 0.418165 0.764818 0.433296
370 1 0.424137 0.795162 0.444805
371 3 0.421221 0.800113 0.463041
372 4 0.427887 0.802235 0.436132
373 1 0.403028 0.804286 0.45988
374 3 0.401222 0.798981 0.478116
375 4 0.393723 0.807328 0.455017
376 1 0.399347 0.780167 0.473091
377 3 0.406638 0.777055 0.491247
378 4 0.397958 0.770123 0.467418
379 1 0.424346 0.780238 0.482979
380 3 0.426082 0.786108 0.500892
381 4 0.433025 0.780379 0.47528
382 1 0.42129 0.805135 0.495137
383 3 0.416499 0.805913 0.514265
384 4 0.420665 0.814542 0.488491
385 1 0.399347 0.79785 0.511671
386 3 0.401361 0.793323 0.530718
387 4 0.39032 0.794101 0.506727
388 1 0.412124 0.777055 0.526098
389 3 0.425387 0.779177 0.538661
390 4 0.413652 0.766445 0.522289
391 1 0.434831 0.79106 0.527152
392 3 0.43872 0.799618 0.543281
393 4 0.439553 0.796081 0.517993
394 1 0.421012 0.80945 0.543281
395 3 0.421429 0.806338 0.562733
396 4 0.412055 0.814825 0.539309
397 1 0.411985 0.789008 0.560869
398 3 0.42136 0.78625 0.576674
399 4 0.406916 0.780167 0.555925
400 1 0.43747 0.779601 0.566542
401 3 0.446011 0.785896 0.58178
402 4 0.444344 0.775145 0.558356
403 1 0.444691 0.804569 0.575377
404 3 0.440664 0.808672 0.593937
405 4 0.445872 0.812774 0.568082
406 1 0.421637 0.805913 0.590533
407 3 0.421846 0.802801 0.609175
408 4 0.411221 0.805347 0.586157
409 1 0.426915 0.783774 0.608283
410 3 0.436011 0.789574 0.623035
411 4 0.426012 0.773447 0.606338
412 1 0.451705 0.793181 0.609094
413 3 0.457399 0.800396 0.624899
414 5 0.4424 0.721021 0.567968
415 1 0.447816 0.816877 0.622224
416 3 0.43865 0.824303 0.635597
417 4 0.448302 0.826072 0.615578
418 1 0.426082 0.810652 0.639407
419 3 0.425665 0.805842 0.658373
420 4 0.416568 0.80655 0.635841
421 1 0.439275 0.791625 0.654401
422 3 0.4449 0.791908 0.672475
423 4 0.442053 0.782643 0.648565
424 1 0.459274 0.804499 0.671422
425 3 0.460037 0.804994 0.690387
426 4 0.465176 0.812633 0.665829
427 1 0.445525 0.81532 0.695332
428 3 0.444344 0.805701 0.710893
429 4 0.439414 0.824091 0.695169
430 1 0.434275 0.791484 0.700438
431 3 0.442747 0.781228 0.71219
432 4 0.429137 0.786533 0.691117
433 1 0.458926 0.780804 0.699951
434 3 0.466565 0.780733 0.716972
435 4 0.466357 0.781157 0.690712
436 1 0.464829 0.799406 0.720376
437 3 0.463232 0.794667 0.739504
438 4 0.465523 0.810298 0.719971
439 1 0.444066 0.791838 0.73918
440 3 0.442539 0.779035 0.75231
441 5 0.449969 0.724995 0.698711
442 1 0.447955 0.765879 0.736829
443 3 0.459899 0.757179 0.745421
444 4 0.445802 0.760221 0.726536
445 1 0.472884 0.770406 0.744367
446 3 0.48205 0.775286 0.758794
447 4 0.480383 0.772599 0.735776
448 1 0.469759 0.787028 0.767629
449 3 0.453441 0.791767 0.767872
450 4 0.476078 0.795657 0.763738
451 1 0.449899 0.787664 0.789512
452 3 0.440733 0.799194 0.79786
453 4 0.44983 0.781086 0.799076
454 1 0.453857 0.813977 0.795915
455 3 0.448649 0.828901 0.790404
456 4 0.46344 0.817937 0.798995
457 1 0.442816 0.823242 0.771033
458 3 0.435109 0.809945 0.763981
459 4 0.451427 0.82692 0.764954
460 1 0.425804 0.820625 0.74769
461 3 0.409277 0.820272 0.752715
462 4 0.430803 0.814896 0.738612
463 1 0.410388 0.801033 0.759361
464 3 0.408374 0.792403 0.775734
465 4 0.411846 0.791201 0.753445
466 1 0.416916 0.805984 0.789107
467 3 0.401222 0.809096 0.794942
468 4 0.422887 0.814189 0.794213
469 1 0.402403 0.793818 0.811072
470 3 0.385945 0.790706 0.810585
471 4 0.401083 0.798274 0.822662
472 1 0.386918 0.78526 0.788134
473 3 0.373793 0.791696 0.777598
474 5 0.394417 0.7079 0.735866
475 1 0.383446 0.807964 0.774113
476 3 0.385807 0.801811 0.757011
477 4 0.388792 0.817513 0.775328
478 1 0.370044 0.809591 0.747123
479 3 0.360739 0.821191 0.737721
480 4 0.362267 0.802306 0.746636
481 1 0.372682 0.836681 0.743881
482 3 0.376988 0.847362 0.728481
483 4 0.374002 0.842764 0.754093
484 1 0.390945 0.835762 0.720457
485 3 0.402819 0.848281 0.717458
486 4 0.394903 0.826355 0.717134
487 1 0.411291 0.846867 0.737397
488 3 0.401708 0.861296 0.739504
489 4 0.42004 0.846513 0.730183
490 1 0.416638 0.869501 0.755228
491 3 0.420179 0.87813 0.739099
492 4 0.424554 0.869147 0.763414
493 1 0.408166 0.893974 0.745015
494 3 0.415666 0.903522 0.731642
495 4 0.403167 0.901047 0.752715
496 1 0.432609 0.904513 0.742989
497 3 0.44365 0.903169 0.728319
498 4 0.438789 0.908049 0.752229
499 1 0.442192 0.883223 0.726698
500 3 0.438928 0.883223 0.707489
501 4 0.442678 0.873108 0.731885
502 1 0.419763 0.883576 0.70911
503 3 0.418235 0.892064 0.693224
504 4 0.409972 0.880747 0.712514
505 1 0.42379 0.909322 0.703112
506 3 0.43004 0.912081 0.685849
507 4 0.427401 0.916325 0.711461
508 1 0.446913 0.903239 0.688766
509 3 0.447122 0.9014 0.669071
510 4 0.455871 0.898925 0.693792
511 1 0.435317 0.886264 0.669963
512 3 0.42622 0.890366 0.654644
513 5 0.438789 0.802897 0.621648
514 1 0.412055 0.899561 0.666964
515 3 0.409694 0.91003 0.652213
516 4 0.404903 0.900552 0.675798
517 1 0.423234 0.922832 0.65894
518 3 0.426151 0.925449 0.639569
519 4 0.430665 0.929127 0.665262
520 1 0.43747 0.908403 0.637624
521 3 0.430387 0.905715 0.619549
522 4 0.44483 0.90041 0.63965
523 1 0.41393 0.898147 0.628222
524 3 0.406152 0.907413 0.6142
525 4 0.408305 0.892559 0.636408
526 1 0.403583 0.923539 0.626358
527 3 0.404972 0.932169 0.609985
528 4 0.401639 0.929834 0.636651
529 1 0.424832 0.93231 0.611282
530 3 0.421082 0.928986 0.592398
531 4 0.433859 0.933654 0.618172
532 1 0.434345 0.914981 0.589399
533 3 0.424484 0.913 0.573108
534 4 0.443719 0.909322 0.589399
535 1 0.410805 0.902603 0.582671
536 3 0.401083 0.912435 0.571892
537 4 0.407263 0.894964 0.59029
538 1 0.391292 0.91972 0.589642
539 3 0.385807 0.935493 0.585995
540 4 0.385598 0.918164 0.600016
541 1 0.403583 0.943061 0.58259
542 3 0.405111 0.943486 0.563463
543 4 0.408444 0.94971 0.590695
544 1 0.423998 0.939878 0.562895
545 3 0.420318 0.938464 0.543767
546 4 0.433998 0.936837 0.566137
547 1 0.416499 0.91972 0.545226
548 3 0.405111 0.922266 0.530799
549 4 0.414902 0.909039 0.548063
550 1 0.391153 0.927995 0.544173
551 3 0.387126 0.938322 0.528773
552 4 0.384765 0.929127 0.553818
553 1 0.398931 0.953176 0.534365
554 3 0.401361 0.95452 0.515156
555 4 0.404277 0.960603 0.540849
556 1 0.413999 0.939383 0.514022
557 3 0.406013 0.937827 0.497163
558 4 0.421568 0.93231 0.516696
559 1 0.391362 0.925803 0.505998
560 3 0.383654 0.932947 0.491247
561 4 0.386848 0.918447 0.513698
562 1 0.377682 0.949144 0.501945
563 3 0.378793 0.954873 0.483628
564 4 0.375321 0.9565 0.511104
565 1 0.396917 0.961593 0.486384
566 3 0.398097 0.958056 0.467661
567 4 0.406638 0.963786 0.491328
568 1 0.399764 0.938747 0.468552
569 3 0.391431 0.941222 0.451937
570 4 0.401708 0.929339 0.472362
571 1 0.373585 0.939312 0.460772
572 3 0.367613 0.950417 0.447236
573 4 0.365738 0.934432 0.466688
574 1 0.373516 0.966615 0.458178
575 3 0.378446 0.974961 0.44213
576 4 0.37671 0.973334 0.467256
577 1 0.394278 0.964139 0.437672
578 3 0.400528 0.955651 0.422354
579 4 0.403791 0.961805 0.442616
580 1 0.384071 0.947234 0.416842
581 3 0.376432 0.959754 0.407197
582 4 0.376224 0.940091 0.418139
583 1 0.385945 0.956995 0.387988
584 3 0.386918 0.941293 0.381099
585 4 0.394 0.963007 0.383044
586 1 0.372196 0.943839 0.366753
587 3 0.370183 0.956076 0.353542
588 4 0.362058 0.941576 0.370887
589 1 0.379279 0.946103 0.337089
590 3 0.389695 0.95742 0.32793
591 4 0.370391 0.950064 0.331172
592 1 0.402958 0.956005 0.344302
593 3 0.416568 0.953034 0.354596
594 4 0.399903 0.964352 0.351354
595 1 0.418929 0.934149 0.346572
596 3 0.429692 0.94101 0.334171
597 4 0.414346 0.923822 0.345356
598 1 0.443025 0.928208 0.33644
599 3 0.450177 0.915193 0.326795
600 4 0.451983 0.931249 0.342438
601 1 0.43615 0.901613 0.333117
602 3 0.433928 0.905857 0.314232
603 4 0.427193 0.897652 0.337575
604 1 0.4449 0.889801 0.30629
605 3 0.431776 0.880181 0.304263
606 4 0.45226 0.882232 0.306127
607 1 0.427262 0.889518 0.28392
608 3 0.437956 0.89454 0.269249
609 4 0.418443 0.896166 0.285135
610 1 0.427401 0.885769 0.252877
611 3 0.418443 0.899491 0.251337
612 4 0.422679 0.877776 0.246393
613 1 0.431984 0.908191 0.236019
614 3 0.434761 0.914698 0.253607
615 4 0.42261 0.909535 0.229778
616 1 0.43872 0.932947 0.245015
617 3 0.425109 0.93521 0.256119
618 5 0.435109 0.859082 0.228833
619 1 0.433928 0.945325 0.272086
620 3 0.425318 0.93132 0.277436
621 4 0.425179 0.952186 0.271276
622 1 0.434484 0.928915 0.297779
623 3 0.420804 0.92071 0.302318
624 4 0.440664 0.930117 0.308073
625 1 0.411291 0.937686 0.308559
626 3 0.405389 0.945325 0.291619
627 4 0.410666 0.945891 0.316502
628 1 0.389279 0.934078 0.290566
629 3 0.376849 0.931815 0.304425
630 4 0.390876 0.925732 0.282623
631 1 0.36303 0.93903 0.292187
632 3 0.360878 0.922478 0.287648
633 4 0.356086 0.945112 0.285865
634 1 0.346434 0.919437 0.301508
635 3 0.332269 0.911727 0.296158
636 4 0.346851 0.916891 0.31326
637 1 0.321505 0.929127 0.295267
638 3 0.311506 0.937544 0.28392
639 4 0.31602 0.932593 0.30556
640 1 0.3272 0.940939 0.268277
641 3 0.340254 0.930188 0.269412
642 4 0.330602 0.951266 0.268196
643 1 0.341712 0.926156 0.247771
644 3 0.351295 0.940727 0.245988
645 4 0.339004 0.919791 0.238531
646 1 0.36803 0.931461 0.244205
647 3 0.371849 0.942778 0.228886
648 4 0.375529 0.923257 0.24615
649 1 0.362544 0.932169 0.213325
650 3 0.347406 0.926722 0.207975
651 4 0.367336 0.924671 0.206111
652 1 0.352198 0.951478 0.210083
653 3 0.356086 0.949781 0.191684
654 4 0.343587 0.957844 0.210569
655 1 0.370113 0.96329 0.191927
656 3 0.383723 0.962159 0.202707
657 4 0.369558 0.974466 0.190793
658 1 0.394903 0.954661 0.186497
659 3 0.400875 0.970293 0.188604
660 4 0.398931 0.951478 0.175636
661 1 0.415318 0.9652 0.201897
662 3 0.429692 0.970505 0.19525
663 4 0.418304 0.962937 0.213811
664 1 0.432123 0.955015 0.179932
665 3 0.440317 0.96421 0.16664
666 4 0.431567 0.944476 0.176609
667 1 0.42254 0.969727 0.157076
668 3 0.428095 0.984934 0.153591
669 4 0.411846 0.969515 0.153347
670 1 0.42872 0.991442 0.175393
671 3 0.442955 0.999717 0.169476
672 4 0.428442 0.991512 0.188037
673 1 0.454691 0.984085 0.17207
674 3 0.464551 0.981469 0.157319
675 4 0.459135 0.976376 0.178635
676 1 0.451219 0.976022 0.142649
677 3 0.456774 0.961805 0.13268
678 4 0.456357 0.983307 0.135516
679 1 0.457052 0.950842 0.152051
680 3 0.440525 0.948225 0.149295
681 4 0.459065 0.947447 0.164289
682 1 0.443164 0.930754 0.139083
683 3 0.440178 0.919508 0.153915
684 4 0.448233 0.92453 0.130086
685 1 0.420387 0.921064 0.15197
686 3 0.418721 0.907413 0.140785
687 4 0.410805 0.925732 0.149133
688 1 0.422123 0.894257 0.157319
689 3 0.406013 0.893337 0.162344
690 4 0.429762 0.889801 0.165019
691 1 0.404069 0.874735 0.156184
692 3 0.414832 0.871976 0.171097
693 4 0.403861 0.866601 0.147998
694 1 0.390181 0.868015 0.171989
695 3 0.386918 0.883859 0.17977
696 4 0.38539 0.861367 0.180256
697 1 0.373793 0.888244 0.162506
698 3 0.360808 0.881101 0.173205
699 4 0.370252 0.890366 0.151078
700 1 0.356642 0.896803 0.183579
701 3 0.349073 0.909747 0.175312
702 4 0.361225 0.90133 0.19444
703 1 0.331227 0.903593 0.181553
704 3 0.330949 0.903098 0.201167
705 4 0.323866 0.896803 0.176528
706 1 0.321714 0.921205 0.203356
707 3 0.308451 0.910949 0.20676
708 4 0.316367 0.930117 0.199627
709 1 0.310742 0.908686 0.227427
710 3 0.300535 0.922266 0.228481
711 5 0.317686 0.823142 0.217244
712 1 0.285189 0.912081 0.233506
713 3 0.283383 0.911232 0.253931
714 4 0.277203 0.905149 0.231804
715 1 0.2813 0.930047 0.256606
716 3 0.271926 0.942142 0.248825
717 4 0.290119 0.935634 0.260739
718 1 0.261718 0.944547 0.267223
719 3 0.264704 0.945042 0.287324
720 4 0.252344 0.939454 0.264792
721 1 0.257343 0.963149 0.289674
722 3 0.273731 0.963078 0.289836
723 5 0.257968 0.886252 0.277581
724 1 0.275884 0.973334 0.30864
725 3 0.281022 0.958268 0.315691
726 4 0.274078 0.979559 0.318933
727 1 0.300257 0.962229 0.31326
728 3 0.299146 0.965129 0.332469
729 4 0.30984 0.966898 0.309613
730 1 0.30234 0.94582 0.338386
731 3 0.312548 0.934291 0.331658
732 4 0.293174 0.941151 0.340412
733 1 0.322686 0.933795 0.352812
734 3 0.314353 0.919225 0.355163
735 4 0.326644 0.936837 0.364403
736 1 0.330116 0.908686 0.349489
737 3 0.344004 0.905644 0.359621
738 4 0.333449 0.905149 0.33798
739 1 0.335741 0.892276 0.372994
740 3 0.321505 0.883647 0.375588
741 4 0.336157 0.898571 0.38345
742 1 0.33088 0.866813 0.381747
743 3 0.332407 0.857052 0.397552
744 4 0.330324 0.857759 0.373399
745 1 0.345948 0.868157 0.406954
746 3 0.342823 0.872542 0.425677
747 4 0.356781 0.870208 0.405819
748 1 0.328727 0.886618 0.419841
749 3 0.330602 0.900552 0.431756
750 4 0.321783 0.881454 0.42746
751 1 0.346226 0.907413 0.418706
752 3 0.342476 0.921205 0.427541
753 4 0.352892 0.907413 0.408818
754 1 0.328311 0.927076 0.414249
755 3 0.318103 0.93521 0.426811
756 4 0.324283 0.929056 0.40274
757 1 0.309423 0.917739 0.433863
758 3 0.309354 0.924742 0.45218
759 4 0.306854 0.906847 0.43443
760 1 0.327477 0.920781 0.455747
761 3 0.329005 0.936059 0.463771
762 4 0.336852 0.915052 0.456881
763 1 0.333171 0.946032 0.445129
764 3 0.325116 0.958764 0.454774
765 4 0.336782 0.94971 0.433782
766 1 0.307756 0.953459 0.447723
767 3 0.301437 0.960673 0.463527
768 4 0.300118 0.948508 0.44059
769 1 0.305257 0.945466 0.477306
770 3 0.311437 0.949286 0.494489
771 4 0.302896 0.935352 0.480143
772 1 0.328241 0.955015 0.485816
773 3 0.329838 0.963149 0.502594
774 4 0.33581 0.957561 0.477468
775 1 0.32088 0.979134 0.497244
776 3 0.316645 0.981398 0.515238
777 5 0.32213 0.905918 0.466493
778 1 0.300257 0.969798 0.514265
779 3 0.304146 0.962654 0.531529
780 4 0.290258 0.967393 0.511914
781 1 0.316575 0.949993 0.52472
782 3 0.325533 0.954661 0.540606
783 4 0.321297 0.942142 0.518804
784 1 0.334768 0.969444 0.531123
785 3 0.334838 0.977578 0.548225
786 4 0.339629 0.975598 0.522127
787 1 0.316159 0.982105 0.548306
788 3 0.316089 0.978568 0.567029
789 4 0.306854 0.985429 0.543524
790 1 0.311992 0.958976 0.56403
791 3 0.321992 0.95643 0.579592
792 4 0.306993 0.950771 0.558843
793 1 0.338449 0.957137 0.567353
794 3 0.344421 0.964564 0.583158
795 4 0.346018 0.956076 0.558113
796 1 0.338588 0.983237 0.578619
797 3 0.336782 0.98649 0.598314
798 4 0.337407 0.993563 0.572702
799 1 0.319422 0.977295 0.598963
800 3 0.323797 0.970929 0.617361
801 4 0.30984 0.973264 0.595964
802 1 0.333866 0.955864 0.60958
803 3 0.347059 0.956005 0.62117
804 4 0.333032 0.946032 0.603826
805 1 0.359142 0.963503 0.606824
806 3 0.365947 0.971071 0.622954
807 4 0.363239 0.965978 0.594991
808 1 0.356225 0.987693 0.622305
809 3 0.361989 0.985854 0.640947
810 4 0.35074 0.996039 0.618334
811 1 0.347337 0.978993 0.650349
812 3 0.356156 0.969939 0.662425
813 4 0.337268 0.977861 0.652861
814 1 0.362614 0.957278 0.646701
815 3 0.377265 0.959047 0.655374
816 4 0.363239 0.94872 0.638677
817 1 0.382612 0.974395 0.64354
818 3 0.390598 0.979346 0.659345
819 4 0.383376 0.98069 0.633814
820 1 0.376293 0.989178 0.669639
821 3 0.382265 0.981539 0.685687
822 4 0.368655 0.996959 0.671584
823 1 0.372196 0.965271 0.68439
824 3 0.385459 0.960461 0.694359
825 4 0.365877 0.956712 0.680824
826 1 0.396431 0.957349 0.675798
827 3 0.408791 0.961451 0.687227
828 4 0.399833 0.9536 0.665019
829 1 0.407263 0.981398 0.684876
830 3 0.41261 0.981681 0.703599
831 4 0.404833 0.991442 0.680337
832 1 0.394625 0.980478 0.712757
833 3 0.401222 0.97291 0.728643
834 4 0.384348 0.982529 0.714378
835 1 0.401292 0.954025 0.717377
836 3 0.415666 0.951761 0.726212
837 4 0.397542 0.946951 0.70911
838 1 0.426359 0.961027 0.710974
839 3 0.435178 0.965483 0.727103
840 4 0.430456 0.963573 0.699951
841 1 0.424832 0.982459 0.73067
842 3 0.428929 0.982388 0.749311
843 4 0.418929 0.9913 0.728319
844 1 0.416916 0.966544 0.754093
845 3 0.420943 0.950771 0.761793
846 4 0.406291 0.965059 0.756849
847 1 0.432401 0.944971 0.744934
848 3 0.431706 0.928066 0.748663
849 4 0.440386 0.94483 0.753039
850 1 0.412332 0.9275 0.744448
851 3 0.400319 0.934856 0.734317
852 4 0.408722 0.92651 0.7562
853 1 0.397125 0.918517 0.721673
854 3 0.384348 0.917527 0.733506
855 4 0.397889 0.908615 0.715351
856 1 0.37296 0.929905 0.719971
857 3 0.362475 0.922266 0.731156
858 4 0.367405 0.926439 0.70984
859 1 0.3656 0.935281 0.748176
860 3 0.357336 0.950276 0.745988
861 4 0.373446 0.938322 0.755795
862 1 0.340393 0.942425 0.752634
863 3 0.337407 0.957844 0.759037
864 4 0.332963 0.935634 0.756687
865 1 0.348379 0.956076 0.778084
866 3 0.356572 0.970647 0.780354
867 4 0.352823 0.950488 0.787891
868 1 0.363586 0.971849 0.760334
869 3 0.356503 0.98451 0.750932
870 4 0.373516 0.969939 0.75539
871 1 0.35074 0.973617 0.733668
872 3 0.336852 0.980124 0.725725
873 4 0.354489 0.967534 0.724023
874 1 0.325464 0.969868 0.741368
875 3 0.316436 0.963927 0.726374
876 5 0.335532 0.888376 0.70177
877 1 0.305951 0.980478 0.724753
878 3 0.303104 0.976234 0.705301
879 4 0.301368 0.990168 0.726212
880 1 0.320325 0.981751 0.698574
881 3 0.320325 0.967534 0.686173
882 4 0.329769 0.98741 0.696953
883 1 0.328588 0.95551 0.703031
884 3 0.317895 0.944264 0.694116
885 4 0.335046 0.951903 0.712514
886 1 0.304215 0.946669 0.709759
887 3 0.294146 0.940373 0.695575
888 4 0.299076 0.948296 0.720538
889 1 0.293452 0.957349 0.68439
890 3 0.293799 0.947234 0.668828
891 4 0.293313 0.967676 0.681715
892 1 0.313173 0.947376 0.666883
893 3 0.310326 0.931744 0.659021
894 4 0.323103 0.951408 0.666883
895 1 0.310395 0.921983 0.679527
896 3 0.300396 0.910878 0.66972
897 4 0.312339 0.920922 0.691198
898 1 0.283939 0.921771 0.675555
899 3 0.278314 0.916042 0.658859
900 4 0.277342 0.928986 0.682039
901 1 0.285813 0.93033 0.646215
902 3 0.288799 0.918588 0.632112
903 4 0.288313 0.94002 0.641676
904 1 0.304632 0.911586 0.641838
905 3 0.298868 0.896874 0.63503
906 5 0.298799 0.832308 0.597095
907 1 0.28873 0.891993 0.652618
908 3 0.278175 0.88591 0.640298
909 4 0.285813 0.890083 0.664451
910 1 0.269356 0.902461 0.635111
911 3 0.268454 0.895954 0.617037
912 4 0.265468 0.912647 0.636732
913 1 0.28623 0.90041 0.611444
914 3 0.285119 0.886476 0.600016
915 4 0.296299 0.903805 0.61112
916 1 0.289355 0.874027 0.616794
917 3 0.278731 0.864054 0.607392