LAMMPS protain data file

        8634  atoms
       11502  bonds
           0  angles
           0  dihedrals
           0  impropers

           5  atom types
           5  bond types
           0  angle types
           0  dihedral types
           0  improper types

-200.0	200.0	xlo xhi
-200.0	200.0	ylo yhi
-200.0	200.0	zlo zhi

Masses

           1	27.0
           2	14.0
           3	28.0
           4	60.0
           5	60.0

Atoms

           1	1	1	1	0.0	80.65	150.96	107.52999
           2	1	1	3	0.0	81.19	150.68	105.28
           3	1	1	4	0.0	81.86	150.39	108.34
           4	1	2	1	0.0	81.26	153.47	104.77
           5	1	2	3	0.0	82.48	152.59	102.82001
           6	1	2	4	0.0	81.23	155.02	104.82
           7	1	3	1	0.0	84.87	152.33	104.16
           8	1	3	3	0.0	85.5	150.48	102.73
           9	1	3	4	0.0	86.02	152.58	105.27
          10	1	4	1	0.0	83.81	148.63	103.96
          11	1	4	3	0.0	83.42	148.13	101.560005
          12	1	4	4	0.0	82.99	147.78	105.01
          13	1	5	1	0.0	81.11	149.8	101.34
          14	1	5	3	0.0	81.59	150.23	99.04
          15	1	5	4	0.0	79.88	150.74	101.68001
          16	1	6	1	0.0	83.68	151.89	99.51
          17	1	6	3	0.0	84.85	151.05	97.57
          18	1	6	4	0.0	84.59	152.97	100.16999
          19	1	7	1	0.0	86.06	148.93	98.95
          20	1	7	3	0.0	85.61	147.02	97.36001
          21	1	7	4	0.0	87.079994	148.34	99.95
          22	1	8	1	0.0	82.97	146.8	98.17
          23	1	8	3	0.0	82.41	146.57	95.77
          24	1	8	4	0.0	81.63	146.74	99.079994
          25	1	9	1	0.0	82.03	149.32	95.399994
          26	1	9	3	0.0	83.18	148.84	93.37
          27	1	9	4	0.0	81.64	150.75	95.82
          28	1	10	1	0.0	85.8	149.24	94.36
          29	1	10	3	0.0	86.380005	147.67	92.61
          30	1	10	4	0.0	86.92	149.49	95.43
          31	1	11	1	0.0	85.57	145.42	94.05001
          32	1	11	3	0.0	84.78	144.27	92.09999
          33	1	11	4	0.0	85.65	144.44	95.26001
          34	1	12	1	0.0	82.34	145.65	92.01
          35	1	12	3	0.0	82.7	145.92	89.619995
          36	1	12	4	0.0	80.93	146.12	92.52
          37	1	13	1	0.0	83.86	148.46	89.73
          38	1	13	3	0.0	85.09	147.78	87.83001
          39	1	13	4	0.0	84.23	149.87	90.31999
          40	1	14	1	0.0	87.04	146.55	89.15
          41	1	14	3	0.0	87.36	144.93	87.48
          42	1	14	4	0.0	88.28	146.2	90.06
          43	1	15	1	0.0	85.18	143.29	88.26
          44	1	15	3	0.0	84.94	142.73	86.02
          45	1	15	4	0.0	84.12	142.69	89.16001
          46	1	16	1	0.0	83.19	145.03	85.56
          47	1	16	3	0.0	84.18	144.82	83.38
          48	1	16	4	0.0	82.39	146.38	85.73
          49	1	17	1	0.0	86.509995	145.93	83.77
          50	1	17	3	0.0	87.16	144.33	82.13
          51	1	17	4	0.0	87.66	146.82	84.32
          52	1	18	1	0.0	87.61	142.3	83.91
          53	1	18	3	0.0	87.01001	140.97	82.09
          54	1	18	4	0.0	88.08	141.5	85.03
          55	1	19	1	0.0	84.24	141.02	82.6
          56	1	19	3	0.0	84.03	140.64	80.29
          57	1	19	4	0.0	82.88	141.16	83.33
          58	1	20	1	0.0	83.93	143.47	79.83
          59	1	20	3	0.0	85.12	143.52	77.74
          60	1	20	4	0.0	83.59	145.0	79.91
          61	1	21	1	0.0	87.58001	143.13	78.8
          62	1	21	3	0.0	88.01	141.63	77.06
          63	1	21	4	0.0	88.89	143.46	79.51
          64	1	22	1	0.0	86.8	139.43	78.21
          65	1	22	3	0.0	85.98	139.23	75.97
          66	1	22	4	0.0	86.50001	138.26	79.17
          67	1	23	1	0.0	83.49	140.27	76.36
          68	1	23	3	0.0	83.47	140.76	74.06
          69	1	23	4	0.0	82.16	140.75	76.99
          70	1	24	1	0.0	85.3	143.0	74.26
          71	1	24	3	0.0	86.08	142.22	72.13
          72	1	24	5	0.0	84.6	135.12215659	69.03720729
          73	1	25	1	0.0	88.06	140.46	73.14
          74	1	25	3	0.0	87.79	138.89	71.24
          75	1	25	4	0.0	89.05999	139.9	74.18
          76	1	26	1	0.0	85.48	137.78	72.19
          77	1	26	3	0.0	84.93	137.87	69.79
          78	1	26	4	0.0	84.38	137.16	73.06
          79	1	27	1	0.0	83.73	140.42	69.82
          80	1	27	3	0.0	84.35	140.41	67.54
          81	1	27	4	0.0	83.11	141.83	70.2
          82	1	28	1	0.0	87.12	140.92	68.09
          83	1	28	3	0.0	87.82	139.71	66.07
          84	1	28	4	0.0	88.38	141.45	68.82
          85	1	29	1	0.0	87.399994	137.28	67.05
          86	1	29	3	0.0	86.31	135.88	65.45
          87	1	29	4	0.0	88.08	136.21	68.0
          88	1	30	1	0.0	83.74	137.03	65.83
          89	1	30	3	0.0	83.42	137.66	63.539997
          90	1	30	4	0.0	82.53	137.0	66.82
          91	1	31	1	0.0	83.53	140.48	64.1
          92	1	31	3	0.0	85.58	139.99	62.96
          93	1	31	4	0.0	83.63	141.76	64.82
          94	1	32	1	0.0	84.84	140.49	60.369995
          95	1	32	3	0.0	85.44	142.87	60.56
          96	1	32	4	0.0	83.97	140.29	59.05
          97	1	33	1	0.0	88.26	142.32	60.14
          98	1	33	3	0.0	87.31	143.19	58.09
          99	1	33	4	0.0	89.62999	141.72	59.87
         100	1	34	1	0.0	88.94	145.39	57.97
         101	1	34	3	0.0	89.80001	145.27	55.74
         102	1	34	4	0.0	89.30999	146.83	58.269997
         103	1	35	1	0.0	91.90001	143.42	56.620003
         104	1	35	3	0.0	91.14001	141.13	56.85
         105	1	35	4	0.0	93.12	143.18	57.55
         106	1	36	1	0.0	91.25	140.64	54.1
         107	1	36	3	0.0	91.79	138.45	54.76
         108	1	36	4	0.0	91.06	140.72	52.520004
         109	1	37	1	0.0	94.439995	138.69	55.04
         110	1	37	3	0.0	93.94999	136.92	56.54
         111	1	37	4	0.0	95.93	139.02	55.02
         112	1	38	1	0.0	93.66	138.76	58.740005
         113	1	38	3	0.0	92.19	137.19	59.77
         114	1	38	4	0.0	93.68001	140.11	59.53
         115	1	39	1	0.0	89.99999	137.83	57.83
         116	1	39	3	0.0	89.48001	135.5	57.85
         117	1	39	4	0.0	88.97	138.64	56.95
         118	1	40	1	0.0	91.17	134.7	55.86
         119	1	40	3	0.0	91.98	132.54	56.76
         120	1	40	4	0.0	91.76	134.79	54.369995
         121	1	41	1	0.0	93.71	133.83	58.66
         122	1	41	3	0.0	95.71001	132.59	58.83
         123	1	41	4	0.0	92.96	132.82	59.5
         124	1	42	1	0.0	96.85999	133.99	56.57
         125	1	42	3	0.0	98.9	134.83	57.410004
         126	1	42	4	0.0	96.94	134.33	55.060005
         127	1	43	1	0.0	97.65	136.85	59.000004
         128	1	43	3	0.0	95.75	136.02	60.2
         129	1	43	4	0.0	97.549995	138.35	58.61
         130	1	44	1	0.0	96.87	136.03	62.649998
         131	1	44	3	0.0	96.58	136.82	64.91
         132	1	44	4	0.0	97.1	134.46	62.649998
         133	1	45	1	0.0	99.22	138.2	64.97
         134	1	45	3	0.0	98.46	138.48	67.32
         135	1	45	4	0.0	100.409996	139.11	64.45
         136	1	46	1	0.0	96.82	140.59	66.68
         137	1	46	3	0.0	95.36	139.75	68.46
         138	1	46	4	0.0	96.4	141.89	66.07
         139	1	47	1	0.0	94.02	137.89	66.85
         140	1	47	3	0.0	93.93001	136.6	68.81
         141	1	47	4	0.0	93.21	137.04	65.74
         142	1	48	1	0.0	96.58	135.62	68.44
         143	1	48	3	0.0	96.85999	135.32	70.85
         144	1	48	4	0.0	97.83	135.04	67.66
         145	1	49	1	0.0	97.41	138.06	71.19
         146	1	49	3	0.0	95.94	138.39	73.13
         147	1	49	4	0.0	98.06999	139.47	70.97
         148	1	50	1	0.0	93.64	138.78	71.76
         149	1	50	3	0.0	92.53	137.46	73.44
         150	1	50	4	0.0	92.62	139.24	70.67
         151	1	51	1	0.0	93.07	135.01	72.36
         152	1	51	3	0.0	93.17	134.39	74.6
         153	1	51	4	0.0	93.42999	133.86	71.43
         154	1	52	1	0.0	95.75	135.22	75.08
         155	1	52	3	0.0	94.95	135.71	77.19
         156	1	52	4	0.0	97.28	135.53	75.03
         157	1	53	1	0.0	94.01	138.36	76.5
         158	1	53	3	0.0	92.64	137.7	78.37
         159	1	53	4	0.0	93.869995	139.7	75.67
         160	1	54	1	0.0	90.63999	136.57	76.9
         161	1	54	3	0.0	90.06	134.86	78.48
         162	1	54	4	0.0	89.45	136.53	75.93
         163	1	55	1	0.0	92.07	133.21	77.85
         164	1	55	3	0.0	92.44	132.69	80.24
         165	1	55	4	0.0	92.97	132.41	76.91
         166	1	56	1	0.0	94.23	134.72	80.57
         167	1	56	3	0.0	92.98999	135.15	82.59
         168	1	56	4	0.0	95.48	135.64	80.34
         169	1	57	1	0.0	91.25	137.12	81.48
         170	1	57	3	0.0	89.57	136.54	83.1
         171	1	57	5	0.0	92.28	129.68443683	76.55580366
         172	1	58	1	0.0	89.08	133.99	81.83
         173	1	58	3	0.0	88.63	132.76	83.83
         174	1	58	4	0.0	88.64	133.13	80.61
         175	1	59	1	0.0	91.340004	132.74	84.66
         176	1	59	3	0.0	91.46001	133.46	86.92
         177	1	59	4	0.0	92.7	131.99	84.34
         178	1	60	1	0.0	91.52999	136.3	86.27
         179	1	60	3	0.0	89.92	136.68	88.12
         180	1	60	4	0.0	91.98	137.53	85.51
         181	1	61	1	0.0	87.61	136.58	86.49
         182	1	61	3	0.0	86.46	136.56	88.53999
         183	1	61	4	0.0	86.74	136.26	85.25
         184	1	62	1	0.0	86.86	133.99	89.23001
         185	1	62	3	0.0	86.95999	134.76	91.52
         186	1	62	4	0.0	87.15	132.49	89.16001
         187	1	63	1	0.0	89.549995	135.77	91.45
         188	1	63	3	0.0	88.78	137.48	92.91001
         189	1	63	4	0.0	91.079994	135.78	91.16
         190	1	64	1	0.0	87.81	139.06	90.759995
         191	1	64	3	0.0	86.16	139.58	92.36
         192	1	64	4	0.0	87.69	139.64	89.36001
         193	1	65	1	0.0	84.57	137.34	91.94
         194	1	65	3	0.0	84.06	137.45	94.27
         195	1	65	4	0.0	83.78	136.19	91.18
         196	1	66	1	0.0	86.24	135.69	94.94001
         197	1	66	3	0.0	86.68	136.85	96.97
         198	1	66	4	0.0	87.3	134.63	94.71
         199	1	67	1	0.0	87.46001	139.28	95.87
         200	1	67	3	0.0	86.22	140.78	97.28
         201	1	67	4	0.0	88.33	140.24	94.95
         202	1	68	1	0.0	83.81	140.35	96.21
         203	1	68	3	0.0	82.67	140.07	98.36
         204	1	68	4	0.0	82.86	140.73	95.04
         205	1	69	1	0.0	82.96	137.21	98.31
         206	1	69	3	0.0	83.1	136.98	100.670006
         207	1	69	4	0.0	83.1	135.8	97.68001
         208	1	70	1	0.0	86.1	137.34	100.59
         209	1	70	3	0.0	87.079994	139.47	100.09
         210	1	70	4	0.0	87.18	136.28	100.11
         211	1	71	1	0.0	87.48	140.19	102.63999
         212	1	71	3	0.0	89.72	141.05	102.17
         213	1	71	5	0.0	86.82001	132.53002082	96.52256457
         214	1	72	1	0.0	91.0	138.85	102.67
         215	1	72	3	0.0	91.17	138.79	100.26
         216	1	72	4	0.0	91.41	137.45	103.13
         217	1	73	1	0.0	93.47	140.17	100.06
         218	1	73	3	0.0	94.38999	137.94	100.09999
         219	1	73	4	0.0	94.47	141.35	99.91
         220	1	74	1	0.0	94.8	137.61	97.41
         221	1	74	3	0.0	94.50001	135.35	97.48001
         222	1	74	4	0.0	95.23	137.99	95.91
         223	1	75	1	0.0	91.84999	135.23	97.32
         224	1	75	3	0.0	90.89001	133.65	95.66
         225	1	75	4	0.0	90.47	135.78	97.36001
         226	1	76	1	0.0	93.42	132.09	95.48
         227	1	76	3	0.0	95.340004	132.12	96.81
         228	1	76	4	0.0	93.66	132.56	94.05001
         229	1	77	1	0.0	96.04	129.5	96.78
         230	1	77	3	0.0	97.42	130.78	95.38
         231	1	77	4	0.0	95.93	128.01	96.41999
         232	1	78	1	0.0	99.52999	131.25	97.13
         233	1	78	3	0.0	100.53999	131.78	95.05
         234	1	78	4	0.0	100.55	131.09	98.27
         235	1	79	1	0.0	101.37	129.09	94.56
         236	1	79	3	0.0	100.89	129.11	92.18
         237	1	79	4	0.0	102.14	127.74	94.75
         238	1	80	1	0.0	98.23	128.86	92.47001
         239	1	80	3	0.0	97.93001	130.51	90.63999
         240	1	80	4	0.0	96.89	128.21	92.79001
         241	1	81	1	0.0	98.130005	132.78	92.32
         242	1	81	3	0.0	99.66	133.81	90.759995
         243	1	81	4	0.0	97.89	133.75	93.47
         244	1	82	1	0.0	101.98	132.63	91.67
         245	1	82	3	0.0	102.89001	132.82	89.45
         246	1	82	4	0.0	102.98	131.87	92.57
         247	1	83	1	0.0	101.619995	130.71	88.44
         248	1	83	3	0.0	101.33	132.24	86.700005
         249	1	83	4	0.0	101.13	129.28	88.23
         250	1	84	1	0.0	98.68	132.92	87.42
         251	1	84	3	0.0	99.11	134.78	85.91
         252	1	84	4	0.0	97.39	132.84	88.31
         253	1	85	1	0.0	100.64	136.21	87.87
         254	1	85	3	0.0	102.58	137.14	86.71
         255	1	85	4	0.0	100.79001	136.75	89.33
         256	1	86	1	0.0	103.58001	134.5	86.01
         257	1	86	3	0.0	103.75	135.01	83.61
         258	1	86	4	0.0	104.4	133.19	86.37001
         259	1	87	1	0.0	101.23001	133.85	83.12
         260	1	87	3	0.0	100.78	135.58	81.41
         261	1	87	4	0.0	100.15001	132.7	83.07
         262	1	88	1	0.0	100.28	137.66	83.2
         263	1	88	3	0.0	101.74	138.96	81.76
         264	1	88	4	0.0	99.72	138.38	84.43
         265	1	89	1	0.0	104.0	138.49	83.1
         266	1	89	3	0.0	105.02	138.71	81.0
         267	1	89	4	0.0	104.96	138.16	84.2
         268	1	90	1	0.0	104.659996	136.1	80.08
         269	1	90	3	0.0	104.58	137.3	77.99
         270	1	90	4	0.0	104.47001	134.55	80.14
         271	1	91	1	0.0	101.76	137.91	78.32
         272	1	91	3	0.0	102.17	139.73	77.04
         273	1	91	4	0.0	100.27	137.66	78.69
         274	1	92	1	0.0	103.16	141.27	79.2
         275	1	92	3	0.0	104.7	142.04	77.56
         276	1	92	4	0.0	103.399994	141.9	80.57
         277	1	93	1	0.0	106.83	140.18	78.35
         278	1	93	3	0.0	107.48	140.66	76.09
         279	1	93	4	0.0	107.54	138.94	78.94
         280	1	94	1	0.0	105.62999	138.92	74.95
         281	1	94	3	0.0	105.72	140.44	73.22
         282	1	94	4	0.0	104.53999	137.89	74.81
         283	1	95	1	0.0	103.6	142.03	74.18
         284	1	95	3	0.0	104.920006	143.48	72.8
         285	1	95	4	0.0	102.47	142.75	74.92
         286	1	96	1	0.0	106.55	144.2	74.99
         287	1	96	3	0.0	108.03001	144.48	73.12
         288	1	96	4	0.0	107.270004	144.29	76.4
         289	1	97	1	0.0	108.93	141.91	73.0
         290	1	97	3	0.0	109.29	142.41	70.61
         291	1	97	4	0.0	109.19	140.46	73.4
         292	1	98	1	0.0	106.76999	142.08	69.9
         293	1	98	3	0.0	107.27999	143.97	68.48
         294	1	98	4	0.0	105.36001	141.62	69.56
         295	1	99	1	0.0	106.26	145.9	70.42
         296	1	99	3	0.0	107.95	147.25	69.25
         297	1	99	4	0.0	105.59	146.57	71.61
         298	1	100	1	0.0	110.27	146.15	70.62
         299	1	100	3	0.0	111.55	146.39	68.58
         300	1	100	4	0.0	111.15	145.47	71.71
         301	1	101	1	0.0	110.79	143.78	67.64
         302	1	101	3	0.0	111.11	144.6	65.43
         303	1	101	4	0.0	110.34	142.36	67.76
         304	1	102	1	0.0	108.3	145.4	65.11
         305	1	102	3	0.0	108.88	147.43	63.84
         306	1	102	4	0.0	106.79	145.41	65.22
         307	1	103	1	0.0	109.810005	148.92	66.13
         308	1	103	3	0.0	111.47	149.79	64.62
         309	1	103	4	0.0	109.82	149.53	67.64
         310	1	104	1	0.0	113.28	147.66	64.89
         311	1	104	3	0.0	113.62999	147.79	62.55
         312	1	104	4	0.0	114.11	146.61	65.66
         313	1	105	1	0.0	111.8	145.82	61.86
         314	1	105	3	0.0	112.25	146.86	59.69
         315	1	105	4	0.0	110.93	144.51	62.04
         316	1	106	1	0.0	110.09	148.71	60.06
         317	1	106	3	0.0	111.42	150.35	58.98
         318	1	106	4	0.0	108.75	149.44	60.520004
         319	1	107	1	0.0	113.1	150.88	61.3
         320	1	107	3	0.0	114.65	151.35	59.570004
         321	1	107	4	0.0	113.67	151.0	62.77
         322	1	108	1	0.0	115.49	148.47	59.470005
         323	1	108	3	0.0	116.04	148.64	57.13
         324	1	108	4	0.0	115.74	147.04	59.99
         325	1	109	1	0.0	113.53	148.53	56.31
         326	1	109	3	0.0	113.71	149.94	54.45
         327	1	109	4	0.0	112.05	148.07	56.26
         328	1	110	1	0.0	114.15	152.3	55.92
         329	1	110	3	0.0	116.08	153.19	54.749996
         330	1	110	4	0.0	113.44	153.45	56.740005
         331	1	111	1	0.0	117.87999	151.6	56.41
         332	1	111	3	0.0	117.68001	150.24	54.4
         333	1	111	4	0.0	118.55	150.8	57.61
         334	1	112	1	0.0	120.09	151.11	53.17
         335	1	112	3	0.0	119.08999	150.1	51.159996
         336	1	112	4	0.0	120.75	149.73	53.31
         337	1	113	1	0.0	118.06999	152.26	50.0
         338	1	113	3	0.0	115.99	151.72	49.04
         339	1	113	4	0.0	118.04	153.77	49.71
         340	1	114	1	0.0	114.82001	150.84	51.59
         341	1	114	3	0.0	115.12	148.9	50.16
         342	1	114	4	0.0	113.67	151.63	51.05
         343	1	115	1	0.0	114.15	147.07	51.91
         344	1	115	3	0.0	111.77	146.92	51.060005
         345	1	115	4	0.0	113.96	146.28	53.219997
         346	1	116	1	0.0	112.45	145.32	48.840004
         347	1	116	3	0.0	113.71	143.3	48.460003
         348	1	116	4	0.0	112.9	146.0	47.470005
         349	1	117	1	0.0	111.58001	141.63	48.07
         350	1	117	3	0.0	109.92	142.12	46.38
         351	1	117	4	0.0	111.29	140.89	49.31
         352	1	118	1	0.0	110.03	139.67	45.14
         353	1	118	3	0.0	108.06	138.48	44.83
         354	1	118	4	0.0	110.91	138.93	44.09
         355	1	119	1	0.0	108.32	136.95	47.14
         356	1	119	3	0.0	108.24	137.06	49.630005
         357	1	119	4	0.0	109.28	135.72	46.93
         358	1	120	1	0.0	105.47	137.32	49.71
         359	1	120	3	0.0	104.14	135.39	50.209995
         360	1	120	4	0.0	104.21999	138.02	49.219997
         361	1	121	1	0.0	105.69	134.55	52.35
         362	1	121	3	0.0	105.9	135.54	54.45
         363	1	121	4	0.0	106.86	133.54	52.269997
         364	1	122	1	0.0	103.58001	134.58	55.470005
         365	1	122	3	0.0	104.03001	133.36	57.570004
         366	1	122	4	0.0	101.93001	134.67	55.49
         367	1	123	1	0.0	105.240005	131.22	56.34
         368	1	123	3	0.0	106.94001	131.6	57.98
         369	1	123	4	0.0	105.29	129.91	55.570004
         370	1	124	1	0.0	108.37	133.36	56.649998
         371	1	124	3	0.0	108.600006	134.49	58.85
         372	1	124	4	0.0	109.15	134.09	55.5
         373	1	125	1	0.0	106.43	136.23	58.42
         374	1	125	3	0.0	106.4	136.39	60.8
         375	1	125	4	0.0	105.28	137.09	57.87
         376	1	126	1	0.0	104.81	134.08	61.05
         377	1	126	3	0.0	105.77	133.19	62.99
         378	1	126	4	0.0	103.56	133.18	60.83
         379	1	127	1	0.0	108.18	132.31	61.84
         380	1	127	3	0.0	109.26	132.88	63.92
         381	1	127	4	0.0	109.14	131.59	60.809998
         382	1	128	1	0.0	109.58	135.68	63.219997
         383	1	128	3	0.0	109.21	136.2	65.46
         384	1	128	4	0.0	109.549995	136.94	62.360004
         385	1	129	1	0.0	106.450005	135.72	65.51
         386	1	129	3	0.0	106.86	134.8	67.68
         387	1	129	4	0.0	104.979996	135.6	65.18
         388	1	130	1	0.0	107.37	132.24	66.87
         389	1	130	3	0.0	108.98999	131.92	68.67
         390	1	130	4	0.0	107.35	130.94	66.09
         391	1	131	1	0.0	110.97	133.34	67.24
         392	1	131	3	0.0	111.649994	134.16	69.43
         393	1	131	4	0.0	111.78001	133.74	65.99
         394	1	132	1	0.0	110.09	136.52	69.28
         395	1	132	3	0.0	109.65	136.08	71.58
         396	1	132	4	0.0	109.42	137.88	68.84
         397	1	133	1	0.0	107.52999	134.32	70.94
         398	1	133	3	0.0	108.16999	133.35	73.05
         399	1	133	4	0.0	106.38999	133.51	70.3
         400	1	134	1	0.0	110.130005	131.57	71.91
         401	1	134	3	0.0	111.649994	131.72	73.82
         402	1	134	4	0.0	110.67	130.45	70.9
         403	1	135	1	0.0	112.729996	134.19	73.17
         404	1	135	3	0.0	112.41999	134.74	75.49
         405	1	135	4	0.0	113.59	135.27	72.5
         406	1	136	1	0.0	109.89	135.71	75.19
         407	1	136	3	0.0	109.48001	134.91	77.53
         408	1	136	4	0.0	108.5	136.22	74.69
         409	1	137	1	0.0	109.22	132.26	76.96
         410	1	137	3	0.0	110.450005	131.97	79.0
         411	1	137	4	0.0	108.97	130.91	76.15
         412	1	138	1	0.0	112.979996	132.2	77.8
         413	1	138	3	0.0	113.94999	133.23	79.76
         414	1	138	5	0.0	111.69	122.99534206	72.92640832
         415	1	139	1	0.0	113.560005	135.93	78.85
         416	1	139	3	0.0	112.85	136.88	80.96
         417	1	139	4	0.0	113.619995	137.05	77.87
         418	1	140	1	0.0	110.450005	135.55	81.16
         419	1	140	3	0.0	110.54	135.16	83.55
         420	1	140	4	0.0	109.03	135.03	80.72
         421	1	141	1	0.0	112.350006	132.96	83.34
         422	1	141	3	0.0	112.62	132.9	85.69
         423	1	141	4	0.0	113.39	131.88	82.87
         424	1	142	1	0.0	114.130005	135.18	85.97
         425	1	142	3	0.0	113.29	135.67	88.16999
         426	1	142	4	0.0	115.17	136.27	85.53
         427	1	143	1	0.0	110.74	136.6	87.49
         428	1	143	3	0.0	110.450005	135.59	89.58
         429	1	143	4	0.0	109.51	137.33	86.85
         430	1	144	1	0.0	109.38	133.21	88.9
         431	1	144	3	0.0	110.46	132.39	90.79
         432	1	144	4	0.0	108.729996	132.16	88.04
         433	1	145	1	0.0	112.93	131.98	89.54
         434	1	145	3	0.0	114.01	132.13	91.72
         435	1	145	4	0.0	114.11	131.51	88.57
         436	1	146	1	0.0	114.02	134.97	91.71001
         437	1	146	3	0.0	113.9	134.53	94.1
         438	1	146	4	0.0	113.78	136.43	91.31
         439	1	147	1	0.0	111.19	134.18	94.00001
         440	1	147	3	0.0	111.27999	132.75	95.8
         441	1	147	5	0.0	112.01	126.21687621	88.73671864
         442	1	148	1	0.0	111.61	130.43	94.189995
         443	1	148	3	0.0	113.07	129.64	96.0
         444	1	148	4	0.0	111.82	129.58	92.9
         445	1	149	1	0.0	115.29	130.89	95.04
         446	1	149	3	0.0	116.27	131.41	97.10999
         447	1	149	4	0.0	116.47001	131.29	94.09
         448	1	150	1	0.0	114.82001	133.67	97.61001
         449	1	150	3	0.0	112.71	134.78	97.44
         450	1	150	4	0.0	115.8	134.86	97.38
         451	1	151	1	0.0	111.75	133.8	99.78001
         452	1	151	3	0.0	110.63999	135.23	101.33
         453	1	151	4	0.0	111.23	132.55	100.52
         454	1	152	1	0.0	112.51	137.28	100.93
         455	1	152	3	0.0	112.49	139.46	99.89
         456	1	152	4	0.0	113.67	137.89	101.74999
         457	1	153	1	0.0	111.68	138.47	97.39
         458	1	153	3	0.0	109.83	136.96	97.03
         459	1	153	4	0.0	112.88	138.3	96.39
         460	1	154	1	0.0	108.63	138.57	95.13
         461	1	154	3	0.0	106.42	138.72	96.08
         462	1	154	4	0.0	109.02	138.03	93.82
         463	1	155	1	0.0	106.1	135.98	96.55
         464	1	155	3	0.0	105.03	135.55	98.63
         465	1	155	4	0.0	106.16	134.49	96.06
         466	1	156	1	0.0	107.020004	136.69	100.21
         467	1	156	3	0.0	104.84	137.55	100.7
         468	1	156	4	0.0	108.11	137.65	100.77
         469	1	157	1	0.0	104.53	135.51	102.85
         470	1	157	3	0.0	102.28	136.06	102.37001
         471	1	157	4	0.0	104.45	136.23	104.21999
         472	1	158	1	0.0	101.99	134.38	100.16999
         473	1	158	3	0.0	100.31	135.84	99.270004
         474	1	158	5	0.0	103.18	124.82349523	93.42754082
         475	1	159	1	0.0	102.06999	137.89	98.450005
         476	1	159	3	0.0	102.4	136.6	96.43
         477	1	159	4	0.0	103.19	139.01	98.46
         478	1	160	1	0.0	100.44	138.07	94.95999
         479	1	160	3	0.0	99.590004	139.73	93.490005
         480	1	160	4	0.0	99.18	137.21	94.58
         481	1	161	1	0.0	100.84	141.88	94.68
         482	1	161	3	0.0	100.93	142.85	92.45
         483	1	161	4	0.0	101.560005	142.77	95.72
         484	1	162	1	0.0	103.48	141.47	91.99
         485	1	162	3	0.0	104.94	143.29	91.75
         486	1	162	4	0.0	103.81	140.01	91.62
         487	1	163	1	0.0	106.53	142.62	93.99
         488	1	163	3	0.0	105.42999	144.76	94.25001
         489	1	163	4	0.0	107.7	142.59	92.979996
         490	1	164	1	0.0	107.35	145.57	96.32
         491	1	164	3	0.0	107.67	146.93	94.28
         492	1	164	4	0.0	108.63	145.64	97.23001
         493	1	165	1	0.0	106.71	149.24	95.27999
         494	1	165	3	0.0	107.99	150.46	93.61001
         495	1	165	4	0.0	105.96	150.31	96.15001
         496	1	166	1	0.0	110.4	150.33	94.759995
         497	1	166	3	0.0	111.89	149.95	93.0
         498	1	166	4	0.0	111.329994	150.75	95.94
         499	1	167	1	0.0	111.52	147.22	93.0
         500	1	167	3	0.0	111.36	147.18	90.63999
         501	1	167	4	0.0	111.39	145.77	93.71
         502	1	168	1	0.0	108.59	147.73	90.54
         503	1	168	3	0.0	109.02	149.09	88.659996
         504	1	168	4	0.0	107.08999	147.62	90.88
         505	1	169	1	0.0	109.64	151.34	90.04
         506	1	169	3	0.0	110.99	151.69	88.11
         507	1	169	4	0.0	109.810005	152.39	91.19
         508	1	170	1	0.0	113.15	150.15	88.9
         509	1	170	3	0.0	113.26	150.15	86.450005
         510	1	170	4	0.0	114.02	149.11	89.65
         511	1	171	1	0.0	111.52	148.02	86.21
         512	1	171	3	0.0	110.57001	148.9	84.21
         513	1	171	5	0.0	112.07	137.47764041	80.05788367
         514	1	172	1	0.0	108.85999	150.8	85.59
         515	1	172	3	0.0	109.35	152.16	83.78
         516	1	172	4	0.0	108.06	151.44	86.76999
         517	1	173	1	0.0	111.64	153.32	84.71
         518	1	173	3	0.0	112.09999	153.47	82.28
         519	1	173	4	0.0	112.85999	153.76	85.58
         520	1	174	1	0.0	113.28	150.78	82.13
         521	1	174	3	0.0	112.33	150.58	79.88
         522	1	174	4	0.0	113.9	149.5	82.49
         523	1	175	1	0.0	109.79	150.11	80.75
         524	1	175	3	0.0	109.16001	151.65	78.95
         525	1	175	4	0.0	108.600006	149.59	81.49
         526	1	176	1	0.0	108.9	153.79	80.68
         527	1	176	3	0.0	109.4	154.76	78.53
         528	1	176	4	0.0	108.88	154.66	81.92
         529	1	177	1	0.0	112.21999	154.89	78.84
         530	1	177	3	0.0	112.53	154.84	76.47
         531	1	177	4	0.0	113.47	154.86	79.62
         532	1	178	1	0.0	112.32	152.13	76.21
         533	1	178	3	0.0	110.82001	152.6	74.45
         534	1	178	4	0.0	113.37	151.05	76.34
         535	1	179	1	0.0	109.04001	150.4	75.07
         536	1	179	3	0.0	107.29	151.44	73.97
         537	1	179	4	0.0	108.7	148.96	75.5
         538	1	180	1	0.0	106.53	152.93	76.26
         539	1	180	3	0.0	106.02	155.09	75.36
         540	1	180	4	0.0	106.11	153.08	77.7
         541	1	181	1	0.0	108.75	156.06	75.29
         542	1	181	3	0.0	108.93	156.2	72.9
         543	1	181	4	0.0	109.61001	156.79	76.31
         544	1	182	1	0.0	111.69	155.7	72.84
         545	1	182	3	0.0	111.36	155.18	70.49
         546	1	182	4	0.0	113.22	155.66	73.1
         547	1	183	1	0.0	110.21	152.65	70.85
         548	1	183	3	0.0	108.75	153.15	68.95
         549	1	183	4	0.0	109.82	151.24	71.36
         550	1	184	1	0.0	106.82001	154.57	70.42
         551	1	184	3	0.0	106.74	156.05	68.51
         552	1	184	4	0.0	105.82	154.85	71.52
         553	1	185	1	0.0	108.76	157.79	69.32
         554	1	185	3	0.0	109.490005	158.04	67.06
         555	1	185	4	0.0	109.560005	158.66	70.3
         556	1	186	1	0.0	111.01001	155.64	67.07
         557	1	186	3	0.0	110.29	155.5	64.87
         558	1	186	4	0.0	111.94	154.47	67.5
         559	1	187	1	0.0	107.8	154.21	65.42
         560	1	187	3	0.0	106.97	155.45	63.570004
         561	1	187	4	0.0	106.81	153.3	66.12
         562	1	188	1	0.0	106.43	157.71	65.27
         563	1	188	3	0.0	106.88	158.99	63.219997
         564	1	188	4	0.0	106.08	158.5	66.52
         565	1	189	1	0.0	109.619995	159.1	63.479996
         566	1	189	3	0.0	109.74	158.62	61.17
         567	1	189	4	0.0	111.07	159.39	63.99
         568	1	190	1	0.0	109.62999	155.92	61.37
         569	1	190	3	0.0	108.729996	156.19	59.23
         570	1	190	4	0.0	109.82	154.45	61.8
         571	1	191	1	0.0	106.04	156.37	59.99
         572	1	191	3	0.0	105.67	158.04	58.360004
         573	1	191	4	0.0	104.71	155.93	60.76
         574	1	192	1	0.0	106.79	160.11	59.69
         575	1	192	3	0.0	108.11	161.18	58.0
         576	1	192	4	0.0	107.06	161.12	60.809998
         577	1	193	1	0.0	109.83	159.23	57.510002
         578	1	193	3	0.0	110.54	158.69	55.27
         579	1	193	4	0.0	111.1	158.56	58.109997
         580	1	194	1	0.0	108.01	157.67	54.44
         581	1	194	3	0.0	106.81	158.69	52.66
         582	1	194	4	0.0	106.62	156.92	54.780003
         583	1	195	1	0.0	109.2	159.43	51.219997
         584	1	195	3	0.0	109.66	157.2	50.589996
         585	1	195	4	0.0	110.450005	160.21	50.87
         586	1	196	1	0.0	108.02	157.17	48.360004
         587	1	196	3	0.0	109.74	157.9	46.92
         588	1	196	4	0.0	106.56	157.35	47.72
         589	1	197	1	0.0	109.85	155.28	45.66
         590	1	197	3	0.0	111.82	154.71	44.55
         591	1	197	4	0.0	109.48001	156.11	44.44
         592	1	198	1	0.0	113.549995	154.8	46.77
         593	1	198	3	0.0	112.95	152.45	47.08
         594	1	198	4	0.0	114.31	155.32	47.99
         595	1	199	1	0.0	115.12	151.46	45.66
         596	1	199	3	0.0	117.07	152.4	44.5
         597	1	199	4	0.0	114.19999	150.73	44.64
         598	1	200	1	0.0	118.46	149.95	44.63
         599	1	200	3	0.0	119.20999	148.44	42.92
         600	1	200	4	0.0	119.55	149.55	45.68
         601	1	201	1	0.0	116.85	147.14	42.53
         602	1	201	3	0.0	116.27	148.34	40.49
         603	1	201	4	0.0	115.54	146.31	42.85
         604	1	202	1	0.0	118.11	147.02	38.95
         605	1	202	3	0.0	115.98	146.08	38.38
         606	1	202	4	0.0	119.329994	146.26	38.37
         607	1	203	1	0.0	115.55	147.84	36.14
         608	1	203	3	0.0	117.33	147.87	34.53
         609	1	203	4	0.0	114.56	149.04	36.32
         610	1	204	1	0.0	115.8	147.88	32.34
         611	1	204	3	0.0	115.44	150.25	32.54
         612	1	204	4	0.0	114.759995	147.17	31.500002
         613	1	205	1	0.0	117.82	150.79	30.91
         614	1	205	3	0.0	118.189995	151.25	33.29
         615	1	205	4	0.0	116.96	151.85	30.150002
         616	1	206	1	0.0	120.01	153.35	32.79
         617	1	206	3	0.0	117.92	154.49	33.39
         618	1	206	5	0.0	119.25	143.85772141	31.00790347
         619	1	207	1	0.0	118.99	154.76	36.13
         620	1	207	3	0.0	117.10999	153.26	36.18
         621	1	207	4	0.0	118.31	156.13	36.03
         622	1	208	1	0.0	117.94999	151.8	38.42
         623	1	208	3	0.0	115.62	151.24	38.52
         624	1	208	4	0.0	118.83999	151.23	39.55
         625	1	209	1	0.0	115.0	153.41	40.18
         626	1	209	3	0.0	114.61	155.34	38.74
         627	1	209	4	0.0	115.23	154.2	41.53
         628	1	210	1	0.0	112.18	154.41	37.85
         629	1	210	3	0.0	110.49	154.28	39.55
         630	1	210	4	0.0	111.75	153.56	36.65
         631	1	211	1	0.0	109.4	156.71	39.11
         632	1	211	3	0.0	107.95	156.76	37.19
         633	1	211	4	0.0	109.73	158.14	39.55
         634	1	212	1	0.0	105.869995	156.06	38.58
         635	1	212	3	0.0	103.71001	155.35	39.24
         636	1	212	4	0.0	106.01	154.61	38.15
         637	1	213	1	0.0	103.47	157.09	41.5
         638	1	213	3	0.0	101.13	157.08	41.22
         639	1	213	4	0.0	103.71001	158.18	42.6
         640	1	214	1	0.0	101.10999	159.32	39.6
         641	1	214	3	0.0	99.84	159.82	37.59
         642	1	214	4	0.0	101.21	160.86	40.08
         643	1	215	1	0.0	102.130005	158.92	35.9
         644	1	215	3	0.0	104.19	158.27	36.85
         645	1	215	4	0.0	102.15	160.17	35.07
         646	1	216	1	0.0	105.15	157.06	34.45
         647	1	216	3	0.0	105.82	159.1	33.29
         648	1	216	4	0.0	105.19	155.95	33.33
         649	1	217	1	0.0	108.27	159.17	34.66
         650	1	217	3	0.0	110.11	157.58	35.17