ITEM: TIMESTEP
0
ITEM: NUMBER OF ATOMS
8634
ITEM: BOX BOUNDS ss ss ss
30.54 180.69
28.31 173.85
-7.41 129.69
ITEM: ATOMS id type xs ys zs
1 1 0.333733 0.842724 0.838366
2 3 0.337329 0.8408 0.821955
3 4 0.341792 0.838807 0.844274
4 1 0.337796 0.85997 0.818235
5 3 0.345921 0.853923 0.804012
6 4 0.337596 0.87062 0.8186
7 1 0.361838 0.852137 0.813786
8 3 0.366034 0.839426 0.803355
9 4 0.369497 0.853855 0.821882
10 1 0.354779 0.826714 0.812327
11 3 0.352181 0.823279 0.794821
12 4 0.349317 0.820874 0.819985
13 1 0.336797 0.834753 0.793217
14 3 0.339993 0.837708 0.776441
15 4 0.328605 0.841212 0.795697
16 1 0.353913 0.849114 0.779869
17 3 0.361705 0.843342 0.765718
18 4 0.359973 0.856534 0.784683
19 1 0.369764 0.828776 0.775784
20 3 0.366767 0.815652 0.764187
21 4 0.376557 0.824722 0.783078
22 1 0.349184 0.81414 0.770095
23 3 0.345455 0.81256 0.752589
24 4 0.34026 0.813728 0.776732
25 1 0.342924 0.831455 0.749891
26 3 0.350583 0.828157 0.735084
27 4 0.340326 0.841281 0.752954
28 1 0.368032 0.830906 0.742305
29 3 0.371895 0.820118 0.72954
30 4 0.375491 0.832623 0.750109
31 1 0.3665 0.804659 0.740044
32 3 0.361239 0.796757 0.72582
33 4 0.367033 0.797925 0.74887
34 1 0.344988 0.806239 0.725164
35 3 0.347386 0.808094 0.707732
36 4 0.335598 0.809468 0.728884
37 1 0.355112 0.825546 0.708534
38 3 0.363303 0.820874 0.694675
39 4 0.357576 0.835234 0.712837
40 1 0.37629 0.812423 0.704303
41 3 0.378422 0.801292 0.692123
42 4 0.384549 0.810018 0.710941
43 1 0.363903 0.790023 0.697812
44 3 0.362304 0.786176 0.681473
45 4 0.356843 0.785901 0.704376
46 1 0.350649 0.801979 0.678118
47 3 0.357243 0.800536 0.662217
48 4 0.345321 0.811255 0.679358
49 1 0.372761 0.808163 0.665062
50 3 0.37709 0.797169 0.6531
51 4 0.38042 0.814278 0.669074
52 1 0.380087 0.783221 0.666083
53 3 0.376091 0.774083 0.652808
54 4 0.383217 0.777724 0.674252
55 1 0.357642 0.774426 0.656528
56 3 0.356244 0.771815 0.639679
57 4 0.348585 0.775388 0.661853
58 1 0.355578 0.79126 0.636324
59 3 0.363503 0.791604 0.62108
60 4 0.353313 0.801773 0.636907
61 1 0.379887 0.788924 0.628811
62 3 0.382751 0.778618 0.61612
63 4 0.388611 0.791191 0.63399
64 1 0.374692 0.763501 0.624508
65 3 0.369231 0.762127 0.608169
66 4 0.372694 0.755462 0.63151
67 1 0.352647 0.769273 0.611014
68 3 0.352514 0.77264 0.594238
69 4 0.34379 0.772571 0.615609
70 1 0.364702 0.788031 0.595697
71 3 0.369897 0.782671 0.58016
72 5 0.36004 0.733902 0.557602
73 1 0.383084 0.770579 0.587527
74 3 0.381285 0.759791 0.573669
75 4 0.389744 0.766731 0.595113
76 1 0.365901 0.752164 0.580598
77 3 0.362238 0.752783 0.563093
78 4 0.358575 0.747904 0.586944
79 1 0.354246 0.770304 0.563311
80 3 0.358375 0.770235 0.546681
81 4 0.350117 0.779992 0.566083
82 1 0.376823 0.773739 0.550693
83 3 0.381485 0.765425 0.535959
84 4 0.385215 0.777381 0.556018
85 1 0.378688 0.748729 0.543107
86 3 0.371429 0.73911 0.531437
87 4 0.383217 0.741377 0.550036
88 1 0.354312 0.747011 0.534209
89 3 0.352181 0.75134 0.517505
90 4 0.346254 0.746805 0.54143
91 1 0.352914 0.770716 0.52159
92 3 0.366567 0.767349 0.513275
93 4 0.35358 0.779511 0.526842
94 1 0.361638 0.770785 0.494384
95 3 0.365634 0.787138 0.49577
96 4 0.355844 0.76941 0.484756
97 1 0.384416 0.783359 0.492706
98 3 0.378089 0.789336 0.477753
99 4 0.39354 0.779236 0.490737
100 1 0.388944 0.804452 0.476878
101 3 0.394672 0.803628 0.460613
102 4 0.391409 0.814347 0.479066
103 1 0.408658 0.790917 0.467031
104 3 0.403597 0.775182 0.468709
105 4 0.416783 0.789268 0.473815
106 1 0.404329 0.771815 0.448651
107 3 0.407925 0.756768 0.453465
108 4 0.403064 0.772365 0.437126
109 1 0.425574 0.758417 0.455507
110 3 0.422311 0.746255 0.466448
111 4 0.435498 0.760684 0.455361
112 1 0.42038 0.758898 0.482495
113 3 0.410589 0.74811 0.490007
114 4 0.420513 0.768174 0.488257
115 1 0.396004 0.752508 0.475857
116 3 0.392541 0.736499 0.476003
117 4 0.389144 0.758073 0.469438
118 1 0.403796 0.731002 0.461488
119 3 0.409191 0.716161 0.468053
120 4 0.407726 0.73162 0.45062
121 1 0.420713 0.725024 0.481911
122 3 0.434033 0.716504 0.483151
123 4 0.415718 0.718084 0.488038
124 1 0.441692 0.726123 0.466667
125 3 0.455278 0.731895 0.472794
126 4 0.442225 0.72846 0.455653
127 1 0.446953 0.745774 0.484391
128 3 0.434299 0.740071 0.493144
129 4 0.446287 0.756081 0.481546
130 1 0.441758 0.74014 0.511014
131 3 0.439827 0.745568 0.527498
132 4 0.44329 0.729353 0.511014
133 1 0.457409 0.75505 0.527936
134 3 0.452348 0.756974 0.545077
135 4 0.465335 0.761303 0.524143
136 1 0.441425 0.771472 0.540408
137 3 0.431702 0.7657 0.553392
138 4 0.438628 0.780404 0.535959
139 1 0.422777 0.75292 0.541648
140 3 0.422178 0.744057 0.555945
141 4 0.417383 0.74708 0.533552
142 1 0.439827 0.737323 0.553246
143 3 0.441692 0.735262 0.570824
144 4 0.448152 0.733338 0.547557
145 1 0.445355 0.754088 0.573304
146 3 0.435565 0.756356 0.587454
147 4 0.44975 0.763776 0.571699
148 1 0.420246 0.759035 0.577462
149 3 0.412854 0.749966 0.589716
150 4 0.413453 0.762196 0.569511
151 1 0.41645 0.733132 0.581838
152 3 0.417116 0.728872 0.598177
153 4 0.418848 0.72523 0.575055
154 1 0.434299 0.734575 0.601678
155 3 0.428971 0.737941 0.617068
156 4 0.444489 0.736705 0.601313
157 1 0.422711 0.75615 0.612035
158 3 0.413586 0.751615 0.625675
159 4 0.421778 0.765357 0.605981
160 1 0.400266 0.74385 0.614953
161 3 0.396404 0.732101 0.626477
162 4 0.392341 0.743576 0.607877
163 1 0.40979 0.720764 0.621882
164 3 0.412254 0.717191 0.639314
165 4 0.415784 0.715267 0.615026
166 1 0.424176 0.731139 0.641721
167 3 0.415917 0.734094 0.656455
168 4 0.432501 0.73746 0.640044
169 1 0.404329 0.74763 0.648359
170 3 0.39314 0.743644 0.660175
171 5 0.411189 0.69654 0.612442
172 1 0.389877 0.726123 0.650912
173 3 0.38688 0.717672 0.6655
174 4 0.386946 0.720214 0.642013
175 1 0.404928 0.717535 0.671554
176 3 0.405728 0.722482 0.688038
177 4 0.413986 0.712381 0.66922
178 1 0.406194 0.741995 0.683297
179 3 0.395471 0.744606 0.696791
180 4 0.409191 0.750447 0.677753
181 1 0.380087 0.743919 0.684902
182 3 0.372428 0.743782 0.699854
183 4 0.374292 0.74172 0.675857
184 1 0.375092 0.726123 0.704887
185 3 0.375758 0.731414 0.72159
186 4 0.377023 0.715817 0.704376
187 1 0.393007 0.738354 0.72108
188 3 0.387879 0.750103 0.731729
189 4 0.403197 0.738422 0.718964
190 1 0.381419 0.760959 0.716047
191 3 0.37043 0.764532 0.727717
192 4 0.380619 0.764944 0.705835
193 1 0.35984 0.749141 0.724654
194 3 0.356444 0.749897 0.741648
195 4 0.354579 0.74124 0.71911
196 1 0.370962 0.737804 0.746535
197 3 0.373893 0.745774 0.761342
198 4 0.378022 0.730521 0.744858
199 1 0.379088 0.762471 0.753319
200 3 0.370829 0.772777 0.763603
201 4 0.384882 0.769067 0.746608
202 1 0.354779 0.769823 0.755799
203 3 0.347186 0.767899 0.771481
204 4 0.348452 0.772434 0.747265
205 1 0.349118 0.748248 0.771116
206 3 0.35005 0.746668 0.78833
207 4 0.35005 0.73856 0.766521
208 1 0.37003 0.749141 0.787746
209 3 0.376557 0.763776 0.784099
210 4 0.377223 0.741858 0.784245
211 1 0.379221 0.768723 0.802699
212 3 0.394139 0.774632 0.799271
213 5 0.374825 0.716092 0.758079
214 1 0.402664 0.759516 0.802918
215 3 0.403796 0.759104 0.785339
216 4 0.405395 0.749897 0.806273
217 1 0.419114 0.768586 0.78388
218 3 0.425241 0.753264 0.784172
219 4 0.425774 0.776694 0.782786
220 1 0.427972 0.750996 0.764551
221 3 0.425974 0.735468 0.765062
222 4 0.430836 0.753607 0.753611
223 1 0.408325 0.734643 0.763895
224 3 0.401932 0.723787 0.751787
225 4 0.399134 0.738422 0.764187
226 1 0.418781 0.713069 0.750474
227 3 0.431569 0.713275 0.760175
228 4 0.42038 0.716298 0.740044
229 1 0.436231 0.695273 0.759956
230 3 0.445421 0.704068 0.749745
231 4 0.435498 0.685035 0.75733
232 1 0.459474 0.707297 0.762509
233 3 0.4662 0.710939 0.747338
234 4 0.466267 0.706198 0.770824
235 1 0.471728 0.692456 0.743764
236 3 0.468532 0.692593 0.726404
237 4 0.476857 0.68318 0.74515
238 1 0.450816 0.690875 0.728519
239 3 0.448818 0.702212 0.715171
240 4 0.441892 0.686409 0.730853
241 1 0.45015 0.71781 0.727425
242 3 0.46034 0.724887 0.716047
243 4 0.448552 0.724474 0.735813
244 1 0.475791 0.716779 0.722684
245 3 0.481852 0.718084 0.706492
246 4 0.482451 0.711557 0.729249
247 1 0.473393 0.703587 0.699125
248 3 0.471462 0.714099 0.686433
249 4 0.47013 0.693761 0.697593
250 1 0.453813 0.718771 0.691685
251 3 0.456677 0.731551 0.680671
252 4 0.445222 0.718222 0.698177
253 1 0.466867 0.741377 0.694967
254 3 0.479787 0.747767 0.686506
255 4 0.467866 0.745087 0.705616
256 1 0.486447 0.729628 0.6814
257 3 0.487579 0.733132 0.663895
258 4 0.491908 0.720627 0.684026
259 1 0.470796 0.725161 0.660321
260 3 0.467799 0.737048 0.647848
261 4 0.463603 0.71726 0.659956
262 1 0.464469 0.75134 0.660904
263 3 0.474193 0.760272 0.650401
264 4 0.460739 0.756287 0.669876
265 1 0.489244 0.757043 0.660175
266 3 0.496037 0.758554 0.644858
267 4 0.495638 0.754775 0.668198
268 1 0.49364 0.740621 0.638147
269 3 0.493107 0.748866 0.622903
270 4 0.492374 0.729971 0.638585
271 1 0.474326 0.753058 0.62531
272 3 0.477056 0.765563 0.615974
273 4 0.464402 0.75134 0.628009
274 1 0.48365 0.776144 0.631729
275 3 0.493906 0.781435 0.619767
276 4 0.485248 0.780473 0.641721
277 1 0.508092 0.768655 0.625529
278 3 0.512421 0.771953 0.609044
279 4 0.512821 0.760135 0.629832
280 1 0.5001 0.759997 0.600729
281 3 0.500699 0.770441 0.588111
282 4 0.49284 0.75292 0.599708
283 1 0.48658 0.781366 0.595113
284 3 0.495371 0.791329 0.585047
285 4 0.479054 0.786313 0.600511
286 1 0.506227 0.796276 0.601021
287 3 0.516084 0.7982 0.587381
288 4 0.511022 0.796894 0.611306
289 1 0.522078 0.780541 0.586506
290 3 0.524476 0.783977 0.569074
291 4 0.52381 0.770579 0.589424
292 1 0.507692 0.781709 0.563895
293 3 0.511089 0.794696 0.553538
294 4 0.498302 0.778549 0.561415
295 1 0.504296 0.807957 0.567688
296 3 0.515551 0.817232 0.559154
297 4 0.499834 0.81256 0.576368
298 1 0.531002 0.809674 0.569147
299 3 0.539527 0.811323 0.554267
300 4 0.536863 0.805002 0.577097
301 1 0.534466 0.79339 0.547411
302 3 0.536597 0.799024 0.531291
303 4 0.531469 0.783633 0.548286
304 1 0.517882 0.804521 0.528957
305 3 0.521745 0.818469 0.519694
306 4 0.507826 0.80459 0.529759
307 1 0.527939 0.828707 0.536397
308 3 0.538994 0.834685 0.525383
309 4 0.528005 0.832898 0.547411
310 1 0.551049 0.820049 0.527352
311 3 0.55338 0.820943 0.510284
312 4 0.556577 0.812835 0.532969
313 1 0.541192 0.807407 0.505252
314 3 0.544189 0.814553 0.489424
315 4 0.535398 0.798406 0.506565
316 1 0.529804 0.827264 0.492123
317 3 0.538661 0.838532 0.484245
318 4 0.520879 0.83228 0.495478
319 1 0.54985 0.842174 0.501167
320 3 0.560173 0.845403 0.488549
321 4 0.553646 0.842998 0.511889
322 1 0.565768 0.825615 0.487819
323 3 0.569431 0.826783 0.470751
324 4 0.567433 0.815789 0.491612
325 1 0.552714 0.826027 0.46477
326 3 0.553913 0.835715 0.451204
327 4 0.542857 0.822867 0.464406
328 1 0.556843 0.851931 0.461926
329 3 0.569697 0.858046 0.453392
330 4 0.552115 0.859832 0.467907
331 1 0.581685 0.847121 0.4655
332 3 0.580353 0.837777 0.450839
333 4 0.586147 0.841624 0.474252
334 1 0.596404 0.843754 0.441867
335 3 0.589744 0.836815 0.427206
336 4 0.600799 0.834272 0.442888
337 1 0.58295 0.851656 0.418745
338 3 0.569098 0.847946 0.411743
339 4 0.582751 0.862031 0.41663
340 1 0.561306 0.841899 0.430343
341 3 0.563303 0.828569 0.419912
342 4 0.553646 0.847327 0.426404
343 1 0.556843 0.815996 0.432677
344 3 0.540992 0.814965 0.426477
345 4 0.555578 0.810568 0.442232
346 1 0.545521 0.803971 0.410284
347 3 0.553913 0.790092 0.407513
348 4 0.548518 0.808644 0.400292
349 1 0.539727 0.778618 0.404668
350 3 0.528671 0.781984 0.392341
351 4 0.537796 0.773533 0.413713
352 1 0.529404 0.76515 0.383297
353 3 0.516284 0.756974 0.381036
354 4 0.535265 0.760066 0.375638
355 1 0.518015 0.746461 0.397885
356 3 0.517483 0.747217 0.416047
357 4 0.524409 0.73801 0.396353
358 1 0.499034 0.749004 0.41663
359 3 0.490177 0.735743 0.420277
360 4 0.490709 0.753813 0.413056
361 1 0.5005 0.729971 0.435886
362 3 0.501898 0.736773 0.451204
363 4 0.508292 0.723031 0.435303
364 1 0.486447 0.730177 0.458643
365 3 0.489444 0.721795 0.473961
366 4 0.475458 0.730796 0.458789
367 1 0.497503 0.707091 0.464989
368 3 0.508825 0.709702 0.476951
369 4 0.497836 0.69809 0.459373
370 1 0.518348 0.721795 0.46725
371 3 0.51988 0.729559 0.483297
372 4 0.523543 0.72681 0.458862
373 1 0.505428 0.741514 0.48016
374 3 0.505228 0.742614 0.49752
375 4 0.497769 0.747423 0.476149
376 1 0.494639 0.726742 0.499344
377 3 0.501032 0.720627 0.513494
378 4 0.486314 0.720558 0.497739
379 1 0.517083 0.71458 0.505106
380 3 0.524276 0.718497 0.520277
381 4 0.523477 0.709633 0.497593
382 1 0.526407 0.737735 0.515171
383 3 0.523943 0.741308 0.53151
384 4 0.526207 0.746393 0.508899
385 1 0.505561 0.73801 0.531875
386 3 0.508292 0.731689 0.547702
387 4 0.495771 0.737186 0.529468
388 1 0.511688 0.714099 0.541794
389 3 0.522478 0.711901 0.554923
390 4 0.511555 0.705167 0.536105
391 1 0.535664 0.721657 0.544493
392 3 0.540193 0.727291 0.560467
393 4 0.541059 0.724406 0.535376
394 1 0.529804 0.743507 0.559373
395 3 0.526873 0.740484 0.576149
396 4 0.525341 0.752851 0.556163
397 1 0.512754 0.728391 0.571481
398 3 0.517016 0.721726 0.586871
399 4 0.505162 0.722825 0.566813
400 1 0.53007 0.709496 0.578556
401 3 0.540193 0.710526 0.592487
402 4 0.533666 0.7018 0.571189
403 1 0.547386 0.727498 0.587746
404 3 0.545321 0.731277 0.604668
405 4 0.553114 0.734918 0.582859
406 1 0.528472 0.737941 0.60248
407 3 0.525741 0.732445 0.619548
408 4 0.519214 0.741446 0.598833
409 1 0.524009 0.714237 0.61539
410 3 0.532201 0.712244 0.63027
411 4 0.522344 0.704961 0.609482
412 1 0.549051 0.713824 0.621517
413 3 0.555511 0.720901 0.635813
414 5 0.54046 0.65058 0.585969
415 1 0.552914 0.739453 0.629176
416 3 0.548185 0.74598 0.644566
417 4 0.553313 0.747149 0.622028
418 1 0.532201 0.736842 0.646025
419 3 0.532801 0.734162 0.663457
420 4 0.522744 0.733269 0.642815
421 1 0.544855 0.719046 0.661926
422 3 0.546653 0.718634 0.679066
423 4 0.551782 0.711626 0.658497
424 1 0.55671 0.7343 0.681109
425 3 0.551116 0.737667 0.697155
426 4 0.563636 0.741789 0.677899
427 1 0.534133 0.744057 0.692195
428 3 0.532201 0.737117 0.70744
429 4 0.525941 0.749072 0.687527
430 1 0.525075 0.720764 0.70248
431 3 0.532268 0.71513 0.716265
432 4 0.520746 0.71355 0.696207
433 1 0.548718 0.712313 0.707148
434 3 0.555911 0.713343 0.723049
435 4 0.556577 0.709083 0.700073
436 1 0.555977 0.732857 0.722976
437 3 0.555178 0.729834 0.740408
438 4 0.554379 0.742889 0.720058
439 1 0.53713 0.727429 0.739679
440 3 0.537729 0.717603 0.752808
441 5 0.542591 0.672715 0.701289
442 1 0.539927 0.701663 0.741065
443 3 0.54965 0.696235 0.754267
444 4 0.541325 0.695822 0.731656
445 1 0.564436 0.704823 0.747265
446 3 0.570962 0.708396 0.762363
447 4 0.572295 0.707572 0.740336
448 1 0.561306 0.723925 0.76601
449 3 0.547253 0.731551 0.76477
450 4 0.567832 0.732101 0.764333
451 1 0.540859 0.724818 0.781838
452 3 0.533467 0.734643 0.793144
453 4 0.537396 0.716229 0.787236
454 1 0.545921 0.748729 0.790226
455 3 0.545788 0.763708 0.78264
456 4 0.553646 0.75292 0.796207
457 1 0.540393 0.756905 0.764406
458 3 0.528072 0.74653 0.76178
459 4 0.548385 0.755737 0.757112
460 1 0.52008 0.757592 0.747921
461 3 0.505361 0.758623 0.75485
462 4 0.522677 0.753882 0.738366
463 1 0.50323 0.739797 0.758279
464 3 0.496104 0.736842 0.77345
465 4 0.50363 0.729559 0.754705
466 1 0.509357 0.744675 0.784974
467 3 0.494839 0.750584 0.788549
468 4 0.516617 0.751271 0.789059
469 1 0.492774 0.736567 0.80423
470 3 0.477789 0.740346 0.800729
471 4 0.492241 0.741514 0.814223
472 1 0.475858 0.728803 0.784683
473 3 0.464669 0.738835 0.778118
474 5 0.483783 0.663141 0.735504
475 1 0.47639 0.75292 0.772137
476 3 0.478588 0.744057 0.757403
477 4 0.48385 0.760616 0.77221
478 1 0.465535 0.754157 0.746681
479 3 0.459874 0.765563 0.735959
480 4 0.457143 0.748248 0.74391
481 1 0.468199 0.780335 0.744639
482 3 0.468798 0.787 0.728373
483 4 0.472994 0.78645 0.752225
484 1 0.485781 0.777518 0.725018
485 3 0.495505 0.790023 0.723268
486 4 0.487979 0.767487 0.722319
487 1 0.506094 0.78542 0.739606
488 3 0.498768 0.800124 0.741503
489 4 0.513886 0.785214 0.732239
490 1 0.511555 0.805689 0.756601
491 3 0.513686 0.815034 0.741721
492 4 0.52008 0.80617 0.763239
493 1 0.507293 0.830906 0.749015
494 3 0.515818 0.839288 0.736835
495 4 0.502298 0.838258 0.755361
496 1 0.531868 0.838395 0.745222
497 3 0.541792 0.835784 0.732385
498 4 0.538062 0.841281 0.753829
499 1 0.539327 0.817026 0.732385
500 3 0.538262 0.816751 0.715171
501 4 0.538462 0.807063 0.737564
502 1 0.519814 0.82053 0.714442
503 3 0.522677 0.829875 0.700729
504 4 0.509824 0.819775 0.716922
505 1 0.526807 0.845335 0.710795
506 3 0.535798 0.847739 0.696718
507 4 0.527939 0.852549 0.719183
508 1 0.550183 0.837158 0.70248
509 3 0.550916 0.837158 0.68461
510 4 0.555977 0.830012 0.70795
511 1 0.539327 0.822523 0.682859
512 3 0.533 0.828569 0.668271
513 5 0.54299 0.750087 0.637986
514 1 0.521612 0.841624 0.678337
515 3 0.524875 0.850969 0.665135
516 4 0.516284 0.846022 0.686944
517 1 0.540127 0.858939 0.671918
518 3 0.54319 0.85997 0.654194
519 4 0.548252 0.861962 0.678264
520 1 0.551049 0.841487 0.6531
521 3 0.544722 0.840113 0.636689
522 4 0.555178 0.832692 0.655726
523 1 0.527806 0.836883 0.643034
524 3 0.52361 0.847465 0.629905
525 4 0.51988 0.83331 0.648432
526 1 0.521878 0.862168 0.642524
527 3 0.525208 0.868833 0.626842
528 4 0.521745 0.868146 0.651568
529 1 0.543989 0.869727 0.629103
530 3 0.546054 0.869383 0.611816
531 4 0.552314 0.86952 0.634792
532 1 0.544655 0.850763 0.60992
533 3 0.534665 0.853992 0.597082
534 4 0.551648 0.843342 0.610868
535 1 0.522811 0.838876 0.601605
536 3 0.511156 0.846022 0.593581
537 4 0.520546 0.828982 0.604741
538 1 0.506094 0.856259 0.610284
539 3 0.502697 0.871101 0.60372
540 4 0.503297 0.85729 0.620788
541 1 0.520879 0.877766 0.603209
542 3 0.522078 0.878727 0.585777
543 4 0.526607 0.882781 0.610649
544 1 0.54046 0.875292 0.585339
545 3 0.538262 0.871719 0.568198
546 4 0.550649 0.875017 0.587236
547 1 0.530603 0.854336 0.570824
548 3 0.520879 0.857771 0.556966
549 4 0.528005 0.844648 0.574544
550 1 0.508025 0.867528 0.567688
551 3 0.507493 0.877697 0.553756
552 4 0.501365 0.869452 0.575711
553 1 0.520946 0.889652 0.559664
554 3 0.525808 0.89137 0.54318
555 4 0.526274 0.89563 0.566813
556 1 0.535931 0.87488 0.543253
557 3 0.531136 0.873918 0.527206
558 4 0.542125 0.866841 0.546389
559 1 0.514552 0.865054 0.531218
560 3 0.509024 0.873574 0.517724
561 4 0.507959 0.858802 0.536324
562 1 0.505428 0.889103 0.530124
563 3 0.508425 0.897897 0.515171
564 4 0.503097 0.894531 0.539241
565 1 0.526673 0.898653 0.517068
566 3 0.527473 0.895355 0.500219
567 4 0.53633 0.900646 0.520788
568 1 0.52674 0.876804 0.501678
569 3 0.520746 0.878659 0.486069
570 4 0.528005 0.866703 0.504814
571 1 0.502831 0.879896 0.491612
572 3 0.500366 0.89137 0.479723
573 4 0.493973 0.876872 0.497228
574 1 0.507826 0.905593 0.489424
575 3 0.516617 0.912945 0.477097
576 4 0.509624 0.912533 0.497593
577 1 0.528072 0.899547 0.473523
578 3 0.532801 0.895836 0.457185
579 4 0.53653 0.894943 0.477899
580 1 0.515951 0.888828 0.451131
581 3 0.507959 0.895836 0.438147
582 4 0.506693 0.883675 0.453611
583 1 0.523876 0.900921 0.427644
584 3 0.52694 0.885598 0.423049
585 4 0.532201 0.90628 0.425091
586 1 0.516017 0.885392 0.406783
587 3 0.527473 0.890408 0.39628
588 4 0.506294 0.886629 0.402115
589 1 0.528205 0.872406 0.38709
590 3 0.541325 0.86849 0.378993
591 4 0.525741 0.878109 0.378191
592 1 0.552847 0.869108 0.395186
593 3 0.548851 0.852961 0.397447
594 4 0.557909 0.872681 0.404085
595 1 0.563303 0.846159 0.38709
596 3 0.57629 0.852618 0.378629
597 4 0.557176 0.841143 0.37965
598 1 0.585548 0.835784 0.379577
599 3 0.590543 0.825409 0.367104
600 4 0.592807 0.833036 0.387236
601 1 0.574825 0.816477 0.36426
602 3 0.570962 0.824722 0.34938
603 4 0.566101 0.810774 0.366594
604 1 0.583217 0.815652 0.338147
605 3 0.569031 0.809193 0.33399
606 4 0.591342 0.81043 0.333917
607 1 0.566167 0.821286 0.317651
608 3 0.578022 0.821492 0.305908
609 4 0.559574 0.829531 0.318964
610 1 0.567832 0.821561 0.289934
611 3 0.565435 0.837845 0.291393
612 4 0.560906 0.816683 0.283807
613 1 0.581285 0.841556 0.279504
614 3 0.58375 0.844716 0.296864
615 4 0.575558 0.848839 0.273961
616 1 0.595871 0.859145 0.293217
617 3 0.581951 0.866978 0.297593
618 5 0.590809 0.793924 0.280218
619 1 0.589078 0.868833 0.317578
620 3 0.576557 0.858527 0.317943
621 4 0.584549 0.878247 0.316849
622 1 0.582151 0.848495 0.334282
623 3 0.566633 0.844648 0.335011
624 4 0.588079 0.844579 0.342524
625 1 0.562504 0.859558 0.347119
626 3 0.559907 0.872818 0.336616
627 4 0.564036 0.864986 0.356966
628 1 0.543723 0.866428 0.330124
629 3 0.532468 0.865535 0.342524
630 4 0.540859 0.860588 0.321371
631 1 0.525208 0.882232 0.339314
632 3 0.515551 0.882575 0.32531
633 4 0.527406 0.892057 0.342524
634 1 0.501698 0.877766 0.335449
635 3 0.487313 0.872887 0.340263
636 4 0.502631 0.867803 0.332312
637 1 0.485714 0.884843 0.356747
638 3 0.47013 0.884774 0.354705
639 4 0.487313 0.892332 0.36477
640 1 0.469997 0.900165 0.342888
641 3 0.461539 0.9036 0.328228
642 4 0.470663 0.910746 0.346389
643 1 0.47679 0.897417 0.315901
644 3 0.49051 0.89295 0.32283
645 4 0.476923 0.906005 0.309847
646 1 0.496903 0.884637 0.305325
647 3 0.501365 0.898653 0.296864
648 4 0.49717 0.87701 0.297155
649 1 0.517682 0.899134 0.306856
650 3 0.529937 0.888209 0.310576
651 4 0.519481 0.90573 0.316047
652 1 0.528538 0.901127 0.287965
653 3 0.533333 0.912876 0.298979
654 4 0.534599 0.898104 0.279431
655 1 0.529737 0.92703 0.286287
656 3 0.515618 0.926549 0.294457
657 4 0.530137 0.932596 0.276003
658 1 0.519414 0.942078 0.306856
659 3 0.526007 0.957056 0.305252
660 4 0.52361 0.938848 0.316703
661 1 0.509624 0.966332 0.306783
662 3 0.496637 0.965576 0.318162
663 4 0.504163 0.968737 0.297666
664 1 0.501232 0.980212 0.328592
665 3 0.48678 0.986396 0.331729
666 4 0.507426 0.987083 0.334573
667 1 0.483916 0.992579 0.312181
668 3 0.46993 0.989419 0.305033
669 4 0.487113 0.999725 0.304887
670 1 0.47306 0.971486 0.301605
671 3 0.475058 0.956232 0.30919
672 4 0.478255 0.96963 0.292123
673 1 0.45701 0.954239 0.311743
674 3 0.456943 0.937612 0.309336
675 4 0.447686 0.956919 0.315974
676 1 0.458009 0.939192 0.288913
677 3 0.467333 0.947162 0.27717
678 4 0.449084 0.938505 0.28337
679 1 0.48032 0.933833 0.27717
680 3 0.479587 0.918923 0.269949
681 4 0.487579 0.92971 0.284391
682 1 0.482651 0.927374 0.250109
683 3 0.491109 0.913838 0.253392
684 4 0.489044 0.932252 0.243618
685 1 0.481186 0.901745 0.240554
686 3 0.496171 0.90147 0.235886
687 4 0.475991 0.899959 0.230853
688 1 0.500966 0.887522 0.247411
689 3 0.497436 0.874811 0.236543
690 4 0.50343 0.88443 0.257914
691 1 0.514685 0.87488 0.228665
692 3 0.519014 0.862718 0.239241
693 4 0.523343 0.878934 0.224216
694 1 0.510157 0.859489 0.215171
695 3 0.502831 0.844648 0.214661
696 4 0.51655 0.857359 0.206492
697 1 0.485714 0.851862 0.211451
698 3 0.478388 0.838532 0.219402
699 4 0.485981 0.846709 0.201678
700 1 0.480253 0.845335 0.238147
701 3 0.472661 0.858939 0.240846
702 4 0.487313 0.845953 0.24639
703 1 0.45721 0.852137 0.248942
704 3 0.464535 0.85461 0.264114
705 4 0.449417 0.845678 0.251131
706 1 0.453813 0.868833 0.270241
707 3 0.448019 0.854817 0.276295
708 4 0.44642 0.875842 0.268782
709 1 0.453413 0.859901 0.296353
710 3 0.438895 0.865948 0.293654
711 5 0.455878 0.787764 0.287713
712 1 0.432035 0.857634 0.311597
713 3 0.423377 0.865673 0.323195
714 4 0.43037 0.848701 0.317724
715 1 0.435365 0.881613 0.322319
716 3 0.42351 0.889034 0.313275
717 4 0.443357 0.887385 0.318381
718 1 0.414186 0.895149 0.328884
719 3 0.416983 0.899134 0.345222
720 4 0.40646 0.888003 0.326258
721 1 0.405195 0.912807 0.347484
722 3 0.418715 0.920915 0.345441
723 5 0.40626 0.843822 0.335455
724 1 0.417183 0.929573 0.363749
725 3 0.425641 0.916587 0.369001
726 4 0.412987 0.934245 0.373085
727 1 0.442225 0.92387 0.367396
728 3 0.443024 0.928611 0.384974
729 4 0.449617 0.92971 0.363093
730 1 0.447819 0.910403 0.39132
731 3 0.453946 0.897004 0.38461
732 4 0.439028 0.908754 0.397155
733 1 0.465468 0.893088 0.399781
734 3 0.456477 0.88072 0.406856
735 4 0.472727 0.895767 0.407294
736 1 0.463403 0.867322 0.395478
737 3 0.475791 0.862512 0.406346
738 4 0.465535 0.863268 0.385485
739 1 0.467133 0.847946 0.413858
740 3 0.453813 0.839357 0.412035
741 4 0.467666 0.851175 0.424435
742 1 0.461405 0.822179 0.41539
743 3 0.462404 0.81043 0.42779
744 4 0.462937 0.814621 0.407513
745 1 0.468398 0.82053 0.442597
746 3 0.466667 0.825409 0.459154
747 4 0.478721 0.818263 0.44391
748 1 0.454546 0.839907 0.45485
749 3 0.457543 0.851793 0.466667
750 4 0.449884 0.834753 0.46302
751 1 0.473327 0.857015 0.455945
752 3 0.47033 0.872269 0.461196
753 4 0.479987 0.856466 0.447411
754 1 0.458142 0.876529 0.44814
755 3 0.448485 0.883812 0.458789
756 4 0.454878 0.878521 0.43771
757 1 0.43976 0.868627 0.466083
758 3 0.441159 0.877834 0.480671
759 4 0.435631 0.858802 0.468563
760 1 0.457543 0.870139 0.484902
761 3 0.460073 0.885392 0.491831
762 4 0.465801 0.863337 0.485047
763 1 0.464203 0.893912 0.475055
764 3 0.45721 0.906211 0.484172
765 4 0.466534 0.897417 0.464624
766 1 0.44016 0.903257 0.476732
767 3 0.437096 0.912945 0.490007
768 4 0.432035 0.89831 0.471991
769 1 0.437429 0.898104 0.504012
770 3 0.445022 0.899409 0.519621
771 4 0.433034 0.88869 0.507367
772 1 0.461006 0.901814 0.513421
773 3 0.463137 0.908616 0.529395
774 4 0.469597 0.901196 0.507221
775 1 0.457742 0.926137 0.524581
776 3 0.452814 0.929641 0.540408
777 5 0.458408 0.862435 0.495864
778 1 0.436564 0.920503 0.539023
779 3 0.438029 0.914044 0.555361
780 4 0.427173 0.91906 0.535667
781 1 0.448418 0.898516 0.548651
782 3 0.456077 0.901745 0.563676
783 4 0.452081 0.890546 0.543399
784 1 0.468398 0.913563 0.555215
785 3 0.467732 0.920915 0.571043
786 4 0.474392 0.919266 0.548286
787 1 0.454013 0.931222 0.56798
788 3 0.450283 0.928405 0.584391
789 4 0.447686 0.937886 0.562509
790 1 0.441559 0.912601 0.581984
791 3 0.447286 0.909578 0.597885
792 4 0.434765 0.905387 0.577097
793 1 0.464069 0.901814 0.58957
794 3 0.469064 0.907448 0.60496
795 4 0.471395 0.900165 0.581765
796 1 0.474392 0.924419 0.598031
797 3 0.471862 0.927649 0.615609
798 4 0.475192 0.932733 0.590664
799 1 0.454679 0.930603 0.614296
800 3 0.455744 0.924763 0.630124
801 4 0.445155 0.933283 0.610357
802 1 0.452414 0.906005 0.624289
803 3 0.461139 0.901608 0.63895
804 4 0.449218 0.897966 0.617943
805 1 0.477256 0.904768 0.629686
806 3 0.483383 0.908341 0.64515
807 4 0.483983 0.905593 0.621152
808 1 0.47699 0.927511 0.644274
809 3 0.482118 0.92813 0.660686
810 4 0.473527 0.936237 0.640044
811 1 0.468199 0.918717 0.668709
812 3 0.476923 0.910952 0.679942
813 4 0.458009 0.917067 0.670168
814 1 0.482384 0.897142 0.668125
815 3 0.496903 0.899478 0.674252
816 4 0.482251 0.889171 0.661269
817 1 0.501432 0.913426 0.661999
818 3 0.509291 0.919678 0.676368
819 4 0.501565 0.919816 0.652954
820 1 0.495238 0.929573 0.683735
821 3 0.503097 0.926687 0.697812
822 4 0.486647 0.935413 0.685777
823 1 0.494639 0.909784 0.701896
824 3 0.507959 0.905249 0.709482
825 4 0.488578 0.901745 0.70496
826 1 0.516284 0.899066 0.692123
827 3 0.529737 0.904013 0.699854
828 4 0.517283 0.89563 0.681546
829 1 0.528405 0.922977 0.695405
830 3 0.533933 0.927236 0.710941
831 4 0.527206 0.930741 0.68833
832 1 0.517349 0.925244 0.721007
833 3 0.526607 0.918648 0.733917
834 4 0.507293 0.925862 0.723122
835 1 0.527739 0.901608 0.72531
836 3 0.542657 0.902845 0.731072
837 4 0.525275 0.892676 0.719694
838 1 0.550583 0.910884 0.715244
839 3 0.56004 0.917548 0.727133
840 4 0.552647 0.914525 0.704668
841 1 0.548918 0.931428 0.733042
842 3 0.554446 0.928542 0.749891
843 4 0.54299 0.939879 0.731875
844 1 0.54046 0.917617 0.755434
845 3 0.548851 0.907517 0.7655
846 4 0.530603 0.913701 0.755507
847 1 0.557043 0.89831 0.750182
848 3 0.558708 0.882644 0.75609
849 4 0.565501 0.901264 0.755945
850 1 0.540326 0.880995 0.757768
851 3 0.528538 0.88924 0.749015
852 4 0.538462 0.879827 0.769001
853 1 0.516817 0.874948 0.747556
854 3 0.508625 0.880926 0.761196
855 4 0.511955 0.865741 0.746171
856 1 0.500766 0.894943 0.750474
857 3 0.487579 0.885667 0.751641
858 4 0.500033 0.902913 0.742743
859 1 0.481918 0.895974 0.768344
860 3 0.47366 0.905524 0.757476
861 4 0.482717 0.900715 0.778556
862 1 0.458941 0.8935 0.75682
863 3 0.450683 0.907242 0.751349
864 4 0.452348 0.885461 0.759519
865 1 0.450749 0.915625 0.770168
866 3 0.452281 0.930809 0.763239
867 4 0.450083 0.916518 0.780963
868 1 0.47033 0.93129 0.763093
869 3 0.468332 0.942421 0.750255
870 4 0.479787 0.930466 0.766156
871 1 0.465068 0.928267 0.735449
872 3 0.452481 0.935413 0.72903
873 4 0.467399 0.920228 0.728665
874 1 0.440693 0.928679 0.743472
875 3 0.434033 0.919266 0.73151
876 5 0.449817 0.861151 0.706394
877 1 0.419714 0.933077 0.727498
878 3 0.417183 0.926962 0.711889
879 4 0.415118 0.942627 0.728228
880 1 0.434099 0.931016 0.70423
881 3 0.434232 0.916312 0.696426
882 4 0.442225 0.937131 0.701094
883 1 0.438961 0.906074 0.711524
884 3 0.428438 0.895355 0.705033
885 4 0.443157 0.902776 0.721444
886 1 0.414918 0.901677 0.717433
887 3 0.40646 0.893775 0.704303
888 4 0.409724 0.907723 0.725529
889 1 0.406127 0.910265 0.69329
890 3 0.406593 0.899478 0.679796
891 4 0.40686 0.920434 0.691831
892 1 0.425708 0.900165 0.678045
893 3 0.424109 0.885186 0.670678
894 4 0.435565 0.902295 0.679723
895 1 0.421245 0.876391 0.689132
896 3 0.411988 0.866566 0.67965
897 4 0.422511 0.874468 0.699927
898 1 0.39667 0.876254 0.683151
899 3 0.39354 0.871307 0.666375
900 4 0.390676 0.884156 0.68709
901 1 0.401998 0.885186 0.656382
902 3 0.404795 0.873437 0.644712
903 4 0.405395 0.894325 0.653392
904 1 0.418781 0.864986 0.656236
905 3 0.414985 0.849869 0.650985
906 5 0.414186 0.794562 0.616459
907 1 0.401132 0.847602 0.664697
908 3 0.393473 0.840937 0.651349
909 4 0.395205 0.84822 0.674106
910 1 0.384882 0.856672 0.645368
911 3 0.385748 0.852274 0.628519
912 4 0.379421 0.865535 0.645806
913 1 0.403397 0.857565 0.625164
914 3 0.405728 0.844991 0.615317
915 4 0.411655 0.862787 0.626331
916 1 0.407726 0.831593 0.629832
917 3 0.398868 0.822248 0.619183