LAMMPS protain data file

        8634  atoms
       11502  bonds
           0  angles
           0  dihedrals
           0  impropers

           5  atom types
           5  bond types
           0  angle types
           0  dihedral types
           0  improper types

-200.0	200.0	xlo xhi
-200.0	200.0	ylo yhi
-200.0	200.0	zlo zhi

Masses

           1	27.0
           2	14.0
           3	28.0
           4	60.0
           5	60.0

Atoms

           1	1	1	1	0.0	71.34	138.85	104.78
           2	1	1	3	0.0	69.4	140.32	105.02
           3	1	1	4	0.0	71.25	138.08	106.16
           4	1	2	1	0.0	68.16	139.48	102.78
           5	1	2	3	0.0	66.9	138.1	104.24
           6	1	2	4	0.0	68.0	138.95	101.30999
           7	1	3	1	0.0	64.52	139.52	103.67
           8	1	3	3	0.0	64.43	138.59	101.52
           9	1	3	4	0.0	63.45	140.63	103.86
          10	1	4	1	0.0	62.57	136.63	102.21
          11	1	4	3	0.0	62.48	136.12	99.88
          12	1	4	4	0.0	61.639996	135.66	102.99
          13	1	5	1	0.0	60.8	138.29	99.29
          14	1	5	3	0.0	61.670002	138.48	97.15
          15	1	5	4	0.0	59.68	139.28	99.44
          16	1	6	1	0.0	64.17	139.58	97.99
          17	1	6	3	0.0	65.43	138.17	96.48
          18	1	6	4	0.0	65.06	140.76	98.63999
          19	1	7	1	0.0	65.74	136.08	98.22
          20	1	7	3	0.0	65.69	134.87	96.09999
          21	1	7	4	0.0	66.01	135.09	99.32
          22	1	8	1	0.0	62.83	134.59	96.28
          23	1	8	3	0.0	62.77	134.71	93.83
          24	1	8	4	0.0	61.44	134.59	96.94
          25	1	9	1	0.0	63.13	137.35	93.68001
          26	1	9	3	0.0	64.77	137.01	91.78001
          27	1	9	4	0.0	62.88	138.85	93.96
          28	1	10	1	0.0	66.96	137.04	93.51
          29	1	10	3	0.0	67.96	135.62	91.87
          30	1	10	4	0.0	67.82	137.19	94.81
          31	1	11	1	0.0	66.66	133.34	92.85
          32	1	11	3	0.0	66.39	132.55	90.6
          33	1	11	4	0.0	65.86	132.45	93.80001
          34	1	12	1	0.0	64.02	134.23	90.19999
          35	1	12	3	0.0	64.81	134.39	87.96
          36	1	12	4	0.0	62.71	135.1	90.46
          37	1	13	1	0.0	66.54	136.45	88.36
          38	1	13	3	0.0	68.14	135.77	86.71
          39	1	13	4	0.0	67.18	137.77	88.85
          40	1	14	1	0.0	69.46	134.04	88.57
          41	1	14	3	0.0	69.65	132.56	86.72
          42	1	14	4	0.0	70.05	133.53	89.89
          43	1	15	1	0.0	67.28	131.31	87.079994
          44	1	15	3	0.0	67.43	131.09	84.64
          45	1	15	4	0.0	65.95	130.89	87.62
          46	1	16	1	0.0	66.42	133.64	84.08
          47	1	16	3	0.0	67.75	133.21	82.01
          48	1	16	4	0.0	65.82	135.04	84.23
          49	1	17	1	0.0	70.15	134.19	83.22
          50	1	17	3	0.0	70.96	132.69	81.55
          51	1	17	4	0.0	71.25	134.64	84.19
          52	1	18	1	0.0	70.77	130.46	83.23
          53	1	18	3	0.0	70.43	129.21	81.28
          54	1	18	4	0.0	70.95	129.57	84.44
          55	1	19	1	0.0	67.6	129.69	81.16
          56	1	19	3	0.0	67.91	129.74	78.75
          57	1	19	4	0.0	66.11	129.85	81.47
          58	1	20	1	0.0	68.59	132.33	78.55
          59	1	20	3	0.0	70.06	131.68	76.75
          60	1	20	4	0.0	68.79	133.77	78.98
          61	1	21	1	0.0	72.26	130.98	78.25
          62	1	21	3	0.0	72.65	129.35	76.61
          63	1	21	4	0.0	73.37	130.92	79.43
          64	1	22	1	0.0	70.8	127.44	77.78
          65	1	22	3	0.0	70.31	126.97	75.41
          66	1	22	4	0.0	69.98	126.73	78.93
          67	1	23	1	0.0	68.36	128.93	75.24
          68	1	23	3	0.0	68.96	129.16	72.85
          69	1	23	4	0.0	67.23	130.0	75.49
          70	1	24	1	0.0	71.38	130.59	73.48
          71	1	24	3	0.0	72.26	129.26	71.79
          72	1	24	5	0.0	70.24	123.37726919	68.33323422
          73	1	25	1	0.0	72.99	127.18	73.46
          74	1	25	3	0.0	72.57	125.78	71.5
          75	1	25	4	0.0	73.55	126.35	74.65
          76	1	26	1	0.0	69.75	125.61001	71.86
          77	1	26	3	0.0	69.77	125.64	69.5
          78	1	26	4	0.0	68.36	125.52	72.47
          79	1	27	1	0.0	69.73	128.4	69.34
          80	1	27	3	0.0	70.95	127.83001	67.35
          81	1	27	4	0.0	69.52	129.94	69.69
          82	1	28	1	0.0	73.44	127.63	68.56
          83	1	28	3	0.0	73.8	126.03	66.92
          84	1	28	4	0.0	74.73	128.08	69.35
          85	1	29	1	0.0	72.87	123.75	68.34
          86	1	29	3	0.0	72.39	122.85	66.19
          87	1	29	4	0.0	72.3	122.9	69.46
          88	1	30	1	0.0	70.04	124.28	65.89
          89	1	30	3	0.0	69.87	124.85	63.5
          90	1	30	4	0.0	68.67	124.63	66.48
          91	1	31	1	0.0	72.04	126.63	63.75
          92	1	31	3	0.0	73.01	125.52	61.790005
          93	1	31	4	0.0	72.83	127.93	64.11
          94	1	32	1	0.0	74.85	124.07	63.350002
          95	1	32	3	0.0	73.78	121.91	63.190002
          96	1	32	4	0.0	75.88	123.71001	64.5
          97	1	33	1	0.0	74.38	121.810005	60.38
          98	1	33	3	0.0	76.17	120.44	61.08
          99	1	33	4	0.0	74.67	122.25001	58.87
         100	1	34	1	0.0	74.88	117.98	60.580006
         101	1	34	3	0.0	75.61	116.19	59.33
         102	1	34	4	0.0	73.74	117.16001	61.3
         103	1	35	1	0.0	75.87	117.77	56.89
         104	1	35	3	0.0	78.16	117.490005	57.379997
         105	1	35	4	0.0	75.92	119.05	55.97
         106	1	36	1	0.0	78.46	115.26001	55.45
         107	1	36	3	0.0	79.99	116.979996	54.82
         108	1	36	4	0.0	78.38	114.34	54.2
         109	1	37	1	0.0	82.01	116.02	56.649998
         110	1	37	3	0.0	82.44	117.94999	58.049995
         111	1	37	4	0.0	82.99	116.59	55.6
         112	1	38	1	0.0	80.84	116.87	60.12
         113	1	38	3	0.0	82.09	117.47	62.02
         114	1	38	4	0.0	79.58	116.13	60.55
         115	1	39	1	0.0	83.73	115.29	62.03
         116	1	39	3	0.0	85.45	116.45	63.29
         117	1	39	4	0.0	84.42	113.94999	61.66
         118	1	40	1	0.0	86.31	118.03	61.21
         119	1	40	3	0.0	86.73	120.33	60.79
         120	1	40	4	0.0	87.39	117.61001	60.24
         121	1	41	1	0.0	83.98	120.98999	60.86
         122	1	41	3	0.0	84.22	121.14	63.219997
         123	1	41	4	0.0	82.42	120.85999	60.580006
         124	1	42	1	0.0	84.66	123.83001	63.3
         125	1	42	3	0.0	83.34	124.3	65.31
         126	1	42	4	0.0	85.34	125.15	62.97
         127	1	43	1	0.0	80.86	124.38	63.790005
         128	1	43	3	0.0	79.85	123.52	65.77
         129	1	43	4	0.0	79.86	124.64	62.57
         130	1	44	1	0.0	80.6	120.84	65.1
         131	1	44	3	0.0	81.03	120.659996	67.58
         132	1	44	4	0.0	81.06	119.6	64.35
         133	1	45	1	0.0	83.47	121.74	67.71
         134	1	45	3	0.0	82.8	122.759995	69.85
         135	1	45	4	0.0	85.0	121.99999	67.4
         136	1	46	1	0.0	81.64	125.05999	68.5
         137	1	46	3	0.0	79.89	125.17999	70.15
         138	1	46	4	0.0	81.56	126.18	67.39
         139	1	47	1	0.0	78.46	123.13	69.04
         140	1	47	3	0.0	78.08	122.23	71.24
         141	1	47	4	0.0	77.86	122.23	67.95
         142	1	48	1	0.0	80.14	120.44	71.33
         143	1	48	3	0.0	80.13	120.71	73.8
         144	1	48	4	0.0	81.4	119.67	70.85
         145	1	49	1	0.0	81.41	123.19	73.58
         146	1	49	3	0.0	80.14	123.90001	75.44
         147	1	49	4	0.0	82.24	124.409996	73.12
         148	1	50	1	0.0	77.86	124.44	73.82
         149	1	50	3	0.0	76.3	123.78001	75.34
         150	1	50	4	0.0	77.11	124.96	72.56
         151	1	51	1	0.0	76.5	121.05999	74.85
         152	1	51	3	0.0	76.38	120.82	77.23
         153	1	51	4	0.0	76.51	119.7	74.09
         154	1	52	1	0.0	79.28	120.95	77.51
         155	1	52	3	0.0	78.93	121.84	79.7
         156	1	52	4	0.0	80.72	120.85999	77.21
         157	1	53	1	0.0	78.21	124.409996	78.81
         158	1	53	3	0.0	76.48	124.19	80.46
         159	1	53	4	0.0	78.22	125.61001	77.86
         160	1	54	1	0.0	74.52	123.18	78.91
         161	1	54	3	0.0	73.72	122.29	80.92
         162	1	54	4	0.0	73.6	122.9	77.72
         163	1	55	1	0.0	75.38	120.05	80.85
         164	1	55	3	0.0	75.31	120.38	83.3
         165	1	55	4	0.0	76.26	118.83999	80.43
         166	1	56	1	0.0	77.43	122.18	83.25
         167	1	56	3	0.0	76.23	123.1	85.11
         168	1	56	4	0.0	78.75	122.87	82.86
         169	1	57	1	0.0	74.53	124.79001	83.82
         170	1	57	3	0.0	72.98	124.44	85.53
         171	1	57	5	0.0	75.56	118.1620003	78.60295185
         172	1	58	1	0.0	72.26	121.86	84.68
         173	1	58	3	0.0	71.79	121.12	86.89001
         174	1	58	4	0.0	71.87	120.53	83.83
         175	1	59	1	0.0	74.52	120.81	87.649994
         176	1	59	3	0.0	74.56	121.869995	89.84
         177	1	59	4	0.0	75.94	119.99	87.38
         178	1	60	1	0.0	75.06	124.41999	88.72001
         179	1	60	3	0.0	73.71	125.26	90.439995
         180	1	60	4	0.0	75.68	125.490005	87.82
         181	1	61	1	0.0	71.32	125.05999	89.12
         182	1	61	3	0.0	70.35	125.47	91.16
         183	1	61	4	0.0	70.17	124.76	88.09999
         184	1	62	1	0.0	70.24	123.12	92.2
         185	1	62	3	0.0	70.63	124.32	94.27
         186	1	62	4	0.0	70.12	121.560005	92.21
         187	1	63	1	0.0	73.49	124.31	93.99
         188	1	63	3	0.0	73.31	126.450005	95.19
         189	1	63	4	0.0	74.92	124.06	93.549995
         190	1	64	1	0.0	73.11	127.88	92.72001
         191	1	64	3	0.0	71.91	129.31	94.22
         192	1	64	4	0.0	72.95	128.21	91.20999
         193	1	65	1	0.0	69.42	127.99	93.84
         194	1	65	3	0.0	68.8	128.58	96.14
         195	1	65	4	0.0	68.33	126.99	93.299995
         196	1	66	1	0.0	70.17	126.51999	97.27
         197	1	66	3	0.0	70.79	128.02	99.14001
         198	1	66	4	0.0	70.6	125.05999	97.54
         199	1	67	1	0.0	72.98	128.93	97.85
         200	1	67	3	0.0	72.74	131.15	98.87
         201	1	67	4	0.0	74.37	129.03	97.22
         202	1	68	1	0.0	70.66	132.02	97.19
         203	1	68	3	0.0	69.32	133.02	98.92
         204	1	68	4	0.0	70.07	132.28	95.86
         205	1	69	1	0.0	67.69	130.72	99.270004
         206	1	69	3	0.0	67.14	130.37	101.62999
         207	1	69	4	0.0	66.68	129.78	98.57001
         208	1	70	1	0.0	69.31	128.89	102.29
         209	1	70	3	0.0	71.54	129.75	102.12001
         210	1	70	4	0.0	69.05	127.340004	102.29
         211	1	71	1	0.0	72.16	129.43	104.84
         212	1	71	3	0.0	73.43	127.71001	103.8
         213	1	71	5	0.0	70.93	121.9429872	99.10987265
         214	1	72	1	0.0	75.94	128.84	104.39
         215	1	72	3	0.0	76.45	127.99	106.6
         216	1	72	4	0.0	77.01	129.92	104.31
         217	1	73	1	0.0	77.01	125.44	105.80001
         218	1	73	3	0.0	77.82	123.17	105.39
         219	1	73	4	0.0	75.84	124.78	106.56
         220	1	74	1	0.0	78.36	123.38	102.76999
         221	1	74	3	0.0	76.93	122.439995	101.12
         222	1	74	4	0.0	79.83	123.32	102.38999
         223	1	75	1	0.0	76.85	124.34	99.24
         224	1	75	3	0.0	76.1	122.42	98.03
         225	1	75	4	0.0	77.39	125.59	98.50001
         226	1	76	1	0.0	78.84	121.68001	97.58
         227	1	76	3	0.0	80.84	122.11	98.63999
         228	1	76	4	0.0	79.09	122.1	96.07
         229	1	77	1	0.0	81.79	119.44	98.31999
         230	1	77	3	0.0	82.82	120.46	96.41999
         231	1	77	4	0.0	81.69	118.04	97.92
         232	1	78	1	0.0	85.35	120.68	97.85
         233	1	78	3	0.0	86.57001	121.01	95.92
         234	1	78	4	0.0	86.29	120.79001	99.1
         235	1	79	1	0.0	86.76999	118.38999	95.08999
         236	1	79	3	0.0	86.31999	118.83	92.8
         237	1	79	4	0.0	87.14001	116.85999	95.19
         238	1	80	1	0.0	83.51	118.79	93.07
         239	1	80	3	0.0	83.5	120.670006	91.52
         240	1	80	4	0.0	81.99	118.56	93.4
         241	1	81	1	0.0	84.17	122.58	93.48001
         242	1	81	3	0.0	85.37	123.84	91.91
         243	1	81	4	0.0	84.25	123.46001	94.72
         244	1	82	1	0.0	87.89	122.21	92.23
         245	1	82	3	0.0	88.18	122.509995	89.82
         246	1	82	4	0.0	88.979996	121.36001	92.88
         247	1	83	1	0.0	86.34	120.48	89.16001
         248	1	83	3	0.0	85.47	121.86	87.39
         249	1	83	4	0.0	85.88	119.03	89.07
         250	1	84	1	0.0	83.68	123.29	89.01
         251	1	84	3	0.0	84.24	125.1	87.39
         252	1	84	4	0.0	82.44	123.5	89.97
         253	1	85	1	0.0	86.21	126.18	89.0
         254	1	85	3	0.0	87.37	126.89001	86.98
         255	1	85	4	0.0	87.0	126.68	90.189995
         256	1	86	1	0.0	88.36	124.36	86.42
         257	1	86	3	0.0	87.84999	124.82	84.22
         258	1	86	4	0.0	89.10999	122.99	86.57001
         259	1	87	1	0.0	85.33	123.81	84.13
         260	1	87	3	0.0	84.94	125.68001	82.53
         261	1	87	4	0.0	84.06	122.93	84.2
         262	1	88	1	0.0	84.37	127.48	84.53
         263	1	88	3	0.0	85.38	129.02	82.96
         264	1	88	4	0.0	83.95	128.09	85.89
         265	1	89	1	0.0	87.99	128.59	83.9
         266	1	89	3	0.0	88.71	128.72	81.62
         267	1	89	4	0.0	89.05999	128.6	84.87
         268	1	90	1	0.0	88.53999	126.01	81.07
         269	1	90	3	0.0	88.16999	126.83	78.87
         270	1	90	4	0.0	88.18	124.47001	81.22
         271	1	91	1	0.0	85.41	127.1	79.15
         272	1	91	3	0.0	85.58	129.04	77.71
         273	1	91	4	0.0	83.9	126.87	79.55
         274	1	92	1	0.0	86.439995	130.7	79.68
         275	1	92	3	0.0	87.91	131.64	78.08
         276	1	92	4	0.0	86.50001	131.48	81.07
         277	1	93	1	0.0	89.99999	129.84	78.54
         278	1	93	3	0.0	90.48	130.17	76.19
         279	1	93	4	0.0	90.98	128.81	79.12
         280	1	94	1	0.0	88.61	128.33	75.44
         281	1	94	3	0.0	88.01	129.74	73.59
         282	1	94	4	0.0	87.75	127.08999	75.5
         283	1	95	1	0.0	86.48	131.5	75.01
         284	1	95	3	0.0	87.43	133.17	73.67
         285	1	95	4	0.0	85.43	132.12	75.94
         286	1	96	1	0.0	89.45	133.67	75.61
         287	1	96	3	0.0	90.89001	134.23	73.68
         288	1	96	4	0.0	90.06	134.01	76.96
         289	1	97	1	0.0	91.48	131.45	73.1
         290	1	97	3	0.0	91.329994	131.84	70.75
         291	1	97	4	0.0	91.92	130.03	73.4
         292	1	98	1	0.0	88.58	131.37	70.54
         293	1	98	3	0.0	88.94	133.11	68.92
         294	1	98	4	0.0	87.05	131.03	70.92
         295	1	99	1	0.0	88.409996	135.16	70.63
         296	1	99	3	0.0	89.9	136.38	69.15
         297	1	99	4	0.0	88.05	135.84	71.98
         298	1	100	1	0.0	92.23	135.19	70.36
         299	1	100	3	0.0	93.37	135.13	68.25
         300	1	100	4	0.0	93.17999	134.66	71.41
         301	1	101	1	0.0	92.26	132.74	67.39
         302	1	101	3	0.0	92.3	133.69	65.27
         303	1	101	4	0.0	91.49	131.36	67.39
         304	1	102	1	0.0	89.83	134.87	65.43
         305	1	102	3	0.0	90.93	136.78	64.35
         306	1	102	4	0.0	88.28999	135.07	65.76
         307	1	103	1	0.0	91.8	137.98	66.45
         308	1	103	3	0.0	93.57	138.61	65.01
         309	1	103	4	0.0	92.14	138.56	67.9
         310	1	104	1	0.0	95.1	136.4	65.39
         311	1	104	3	0.0	95.68	136.78	63.03
         312	1	104	4	0.0	95.72	135.13	65.93
         313	1	105	1	0.0	93.299995	135.53	62.02
         314	1	105	3	0.0	93.71	137.21	60.45
         315	1	105	4	0.0	91.92	134.73	62.03
         316	1	106	1	0.0	92.16	139.24	61.66
         317	1	106	3	0.0	93.73	140.7	60.529995
         318	1	106	4	0.0	91.08999	139.91	62.580006
         319	1	107	1	0.0	95.74	140.46	62.620003
         320	1	107	3	0.0	97.240005	141.21	61.07
         321	1	107	4	0.0	96.350006	140.18	64.01
         322	1	108	1	0.0	97.42999	138.68	59.699997
         323	1	108	3	0.0	97.299995	138.98	57.29
         324	1	108	4	0.0	97.94999	137.22	59.72
         325	1	109	1	0.0	94.49	139.29	57.28
         326	1	109	3	0.0	93.52	140.99	55.91
         327	1	109	4	0.0	93.15	138.51	57.68
         328	1	110	1	0.0	94.86	143.11	57.17
         329	1	110	3	0.0	95.06	144.24	55.060005
         330	1	110	4	0.0	95.47	144.03	58.25
         331	1	111	1	0.0	97.26	142.94	54.18
         332	1	111	3	0.0	98.51999	141.02	54.73
         333	1	111	4	0.0	97.99999	144.24	53.86
         334	1	112	1	0.0	99.19	140.43	51.9
         335	1	112	3	0.0	101.35	140.99	52.0
         336	1	112	4	0.0	98.31	139.3	51.259995
         337	1	113	1	0.0	99.69	141.73	49.01
         338	1	113	3	0.0	98.759995	143.45	50.41
         339	1	113	4	0.0	100.53999	142.19	47.81
         340	1	114	1	0.0	96.64	143.95	48.73
         341	1	114	3	0.0	95.43	142.8	50.35
         342	1	114	4	0.0	95.63	144.16	47.479996
         343	1	115	1	0.0	94.78	144.88	52.0
         344	1	115	3	0.0	92.64	144.32	51.099995
         345	1	115	4	0.0	94.450005	146.31	52.51
         346	1	116	1	0.0	92.03001	142.4	53.11
         347	1	116	3	0.0	92.31	140.9	51.29
         348	1	116	4	0.0	90.68	143.06	52.740005
         349	1	117	1	0.0	92.600006	138.51	52.82
         350	1	117	3	0.0	90.17	138.22	52.69
         351	1	117	4	0.0	93.16001	137.58	53.88
         352	1	118	1	0.0	90.17	136.23	50.809998
         353	1	118	3	0.0	89.45	133.95	50.649998
         354	1	118	4	0.0	89.99	136.46	49.250004
         355	1	119	1	0.0	91.74	132.9	52.18
         356	1	119	3	0.0	89.94	132.38	53.730003
         357	1	119	4	0.0	92.98999	132.88	53.01
         358	1	120	1	0.0	89.68001	129.78	52.99
         359	1	120	3	0.0	91.01001	128.03	52.02
         360	1	120	4	0.0	88.23	129.95	52.300003
         361	1	121	1	0.0	90.95999	126.29	54.18
         362	1	121	3	0.0	90.62	125.72	56.460003
         363	1	121	4	0.0	92.49	126.130005	54.31
         364	1	122	1	0.0	88.72001	123.78001	56.06
         365	1	122	3	0.0	89.46	122.75	58.02
         366	1	122	4	0.0	87.54	122.91	55.44
         367	1	123	1	0.0	91.73	121.45	56.749996
         368	1	123	3	0.0	92.91001	121.89	58.73
         369	1	123	4	0.0	92.55	120.72001	55.71
         370	1	124	1	0.0	93.58	124.4	58.28
         371	1	124	3	0.0	93.2	124.75	60.55
         372	1	124	4	0.0	93.99	125.810005	57.790005
         373	1	125	1	0.0	90.55	125.39	60.29
         374	1	125	3	0.0	90.14	124.670006	62.51
         375	1	125	4	0.0	89.17	125.74999	59.58
         376	1	126	1	0.0	90.62	121.87999	61.790005
         377	1	126	3	0.0	91.74	121.7	63.97
         378	1	126	4	0.0	90.37001	120.58	60.97
         379	1	127	1	0.0	94.22	121.98	63.04
         380	1	127	3	0.0	94.81	123.20999	64.96
         381	1	127	4	0.0	95.55	122.21	62.24
         382	1	128	1	0.0	93.36001	125.549995	64.38
         383	1	128	3	0.0	92.84	125.71	66.7
         384	1	128	4	0.0	92.85999	126.69001	63.45
         385	1	129	1	0.0	90.53	124.12	66.58
         386	1	129	3	0.0	91.15	123.35	68.77
         387	1	129	4	0.0	89.04001	123.77	66.31
         388	1	130	1	0.0	92.71	121.21	67.62
         389	1	130	3	0.0	94.130005	121.36001	69.58
         390	1	130	4	0.0	93.21	120.04	66.68
         391	1	131	1	0.0	95.55	123.590004	68.68
         392	1	131	3	0.0	95.26001	124.49	70.94
         393	1	131	4	0.0	96.25	124.37	67.61
         394	1	132	1	0.0	92.920006	126.08	70.37
         395	1	132	3	0.0	92.97	125.67	72.63
         396	1	132	4	0.0	91.63	126.66	69.77
         397	1	133	1	0.0	91.47	123.31	72.45
         398	1	133	3	0.0	92.46	122.67	74.51
         399	1	133	4	0.0	90.29	122.41	71.93
         400	1	134	1	0.0	94.8	121.59	73.27
         401	1	134	3	0.0	95.92	122.439995	75.19
         402	1	134	4	0.0	95.88	120.96	72.3
         403	1	135	1	0.0	96.13	125.04001	74.26
         404	1	135	3	0.0	95.82	125.79	76.47
         405	1	135	4	0.0	96.59	126.18	73.32
         406	1	136	1	0.0	93.01	125.74999	76.23
         407	1	136	3	0.0	92.95	125.22	78.56
         408	1	136	4	0.0	91.62	125.869995	75.67
         409	1	137	1	0.0	93.22	122.54	78.43
         410	1	137	3	0.0	94.63	122.93	80.33
         411	1	137	4	0.0	93.08	121.1	78.04
         412	1	138	1	0.0	97.03	123.27999	78.91
         413	1	138	3	0.0	97.79	124.409996	80.86
         414	1	138	5	0.0	95.649994	114.83247141	73.91813512
         415	1	139	1	0.0	96.82	126.99	79.93
         416	1	139	3	0.0	95.99	127.67	82.01
         417	1	139	4	0.0	96.670006	128.18	78.95
         418	1	140	1	0.0	93.73	126.29	82.09
         419	1	140	3	0.0	93.87999	125.810005	84.44
         420	1	140	4	0.0	92.26	125.810005	81.7
         421	1	141	1	0.0	95.46001	123.48	84.22
         422	1	141	3	0.0	95.74	123.83001	86.54
         423	1	141	4	0.0	96.409996	122.43	83.53
         424	1	142	1	0.0	97.64	125.69	86.53
         425	1	142	3	0.0	97.05	127.1	88.41999
         426	1	142	4	0.0	98.97	126.34	86.06999
         427	1	143	1	0.0	94.92	128.32	87.020004
         428	1	143	3	0.0	94.28	129.01	89.15
         429	1	143	4	0.0	93.97	128.84	85.88
         430	1	144	1	0.0	93.02	126.69001	90.06
         431	1	144	3	0.0	93.73	125.7	92.03001
         432	1	144	4	0.0	91.61	126.25001	89.69
         433	1	145	1	0.0	95.25	123.66	90.95
         434	1	145	3	0.0	96.46	123.77	93.05
         435	1	145	4	0.0	95.82	122.59	89.99999
         436	1	146	1	0.0	98.450005	125.65	91.89
         437	1	146	3	0.0	99.03	126.21	94.12001
         438	1	146	4	0.0	99.20999	126.50001	90.86
         439	1	147	1	0.0	96.69	128.01	94.21
         440	1	147	3	0.0	96.19	127.54	96.47001
         441	1	147	5	0.0	97.25	121.06647321	88.54415412
         442	1	148	1	0.0	95.0	125.09	96.02
         443	1	148	3	0.0	96.0	123.89	97.73
         444	1	148	4	0.0	93.97	124.04	95.45
         445	1	149	1	0.0	98.509995	123.61	96.4
         446	1	149	3	0.0	99.66	123.93	98.450005
         447	1	149	4	0.0	99.57	123.1	95.37
         448	1	150	1	0.0	99.44	126.700005	98.47
         449	1	150	3	0.0	99.67	126.700005	100.94
         450	1	150	4	0.0	99.20999	128.14	97.99999
         451	1	151	1	0.0	96.94	126.47	101.19
         452	1	151	3	0.0	95.18	125.1	100.28
         453	1	151	4	0.0	96.28	127.87	101.25
         454	1	152	1	0.0	94.72	123.71001	102.67
         455	1	152	3	0.0	92.659996	123.69	103.84
         456	1	152	4	0.0	95.1	122.33	103.38
         457	1	153	1	0.0	92.53999	126.38999	104.31
         458	1	153	3	0.0	90.67	127.91	103.81
         459	1	153	4	0.0	93.09	127.52999	105.22
         460	1	154	1	0.0	90.91	127.590004	101.08
         461	1	154	3	0.0	88.55	128.41	100.89
         462	1	154	4	0.0	91.44	127.25	99.67
         463	1	155	1	0.0	87.41	126.00001	101.36001
         464	1	155	3	0.0	87.2	126.23	103.73
         465	1	155	4	0.0	87.24	124.46	101.10999
         466	1	156	1	0.0	84.78	127.6	103.52999
         467	1	156	3	0.0	82.9	126.130005	102.88
         468	1	156	4	0.0	84.84	129.16	103.58001
         469	1	157	1	0.0	81.07	127.17	104.48
         470	1	157	3	0.0	78.95	127.48	103.36
         471	1	157	4	0.0	80.59	127.43	105.89
         472	1	158	1	0.0	79.78	129.4	101.65
         473	1	158	3	0.0	81.1	127.89	100.44
         474	1	158	5	0.0	80.5	121.95798126	94.91139622
         475	1	159	1	0.0	80.5	129.22	97.85
         476	1	159	3	0.0	82.7	129.6	98.51999
         477	1	159	4	0.0	80.07	130.31	96.85999
         478	1	160	1	0.0	83.75	127.58001	96.76
         479	1	160	3	0.0	85.34	127.06	95.03
         480	1	160	4	0.0	83.42	126.1	96.91001
         481	1	161	1	0.0	84.76	129.29	93.52
         482	1	161	3	0.0	86.91	130.1	93.19
         483	1	161	4	0.0	83.79	130.02	92.59
         484	1	162	1	0.0	86.6	132.01	95.340004
         485	1	162	3	0.0	87.38	134.24	94.92
         486	1	162	4	0.0	86.54	131.98	96.93
         487	1	163	1	0.0	84.78	135.28	94.700005
         488	1	163	3	0.0	85.58	135.13	92.45
         489	1	163	4	0.0	84.9	136.27	95.84
         490	1	164	1	0.0	85.9	137.96	92.23
         491	1	164	3	0.0	88.24	138.16	92.82
         492	1	164	4	0.0	85.29	139.44	92.38
         493	1	165	1	0.0	89.01	138.54	90.14
         494	1	165	3	0.0	89.26	140.85	90.95
         495	1	165	4	0.0	89.10999	138.51	88.58
         496	1	166	1	0.0	91.71001	140.48	92.0
         497	1	166	3	0.0	93.12	142.31	91.32
         498	1	166	4	0.0	92.38	139.79	93.23001
         499	1	167	1	0.0	94.04	141.04	88.97
         500	1	167	3	0.0	94.26	141.83	86.63
         501	1	167	4	0.0	95.29	140.12	88.73999
         502	1	168	1	0.0	91.36	142.35	86.47
         503	1	168	3	0.0	92.0	143.68	84.52
         504	1	168	4	0.0	89.93001	142.62	86.88
         505	1	169	1	0.0	93.0	145.78	85.99
         506	1	169	3	0.0	94.509995	146.22	84.17
         507	1	169	4	0.0	93.09	146.88	87.03
         508	1	170	1	0.0	96.45	144.6	84.86
         509	1	170	3	0.0	97.27	143.48	83.07
         510	1	170	4	0.0	97.65	144.46	85.78
         511	1	171	1	0.0	95.23	141.52	83.1
         512	1	171	3	0.0	94.439995	142.25	80.95
         513	1	171	5	0.0	95.45	131.23057845	77.57864204
         514	1	172	1	0.0	91.64	142.0	81.69
         515	1	172	3	0.0	91.079994	143.43	79.91
         516	1	172	4	0.0	90.34	141.62	82.52
         517	1	173	1	0.0	91.86	145.74	81.32
         518	1	173	3	0.0	93.21	146.11	79.33
         519	1	173	4	0.0	91.52	146.82	82.33
         520	1	174	1	0.0	95.57	146.67	80.5
         521	1	174	3	0.0	96.39	146.17	78.26
         522	1	174	4	0.0	96.72001	146.78	81.48
         523	1	175	1	0.0	96.84	143.47	78.82
         524	1	175	3	0.0	96.46	141.8	77.25
         525	1	175	4	0.0	97.68001	142.39	79.52
         526	1	176	1	0.0	93.77	142.2	77.04
         527	1	176	3	0.0	92.85	143.48	75.26
         528	1	176	4	0.0	93.15	141.13	77.92
         529	1	177	1	0.0	91.07	144.8	76.66
         530	1	177	3	0.0	91.23	146.47	74.76
         531	1	177	4	0.0	90.06	145.15	77.8
         532	1	178	1	0.0	93.42999	147.75	75.43
         533	1	178	3	0.0	93.810005	147.79	73.02
         534	1	178	4	0.0	94.439995	148.68	76.15
         535	1	179	1	0.0	94.83	145.32	72.68
         536	1	179	3	0.0	93.49999	144.94	70.77
         537	1	179	4	0.0	95.95	144.32	72.94
         538	1	180	1	0.0	91.3	143.92	71.97
         539	1	180	3	0.0	90.08	145.11	70.35
         540	1	180	4	0.0	90.36	143.15	73.06
         541	1	181	1	0.0	90.130005	147.65	71.65
         542	1	181	3	0.0	90.22	148.35	69.36
         543	1	181	4	0.0	90.22	148.81	72.72
         544	1	182	1	0.0	92.89	148.56	69.19
         545	1	182	3	0.0	92.5	147.99	66.87
         546	1	182	4	0.0	94.4	148.97	69.46
         547	1	183	1	0.0	92.44	145.23	67.36
         548	1	183	3	0.0	90.81	145.39	65.52
         549	1	183	4	0.0	92.85999	143.76	67.82
         550	1	184	1	0.0	88.53999	145.64	67.1
         551	1	184	3	0.0	87.75	147.01	65.27
         552	1	184	4	0.0	87.52	145.42	68.18
         553	1	185	1	0.0	88.79001	149.3	66.07
         554	1	185	3	0.0	89.04001	149.66	63.78
         555	1	185	4	0.0	89.08	150.53	66.93
         556	1	186	1	0.0	91.57	148.38	63.45
         557	1	186	3	0.0	90.63999	148.07	61.2
         558	1	186	4	0.0	92.979996	147.6	63.59
         559	1	187	1	0.0	89.25	145.73	62.06
         560	1	187	3	0.0	87.86	146.5	60.34
         561	1	187	4	0.0	88.85999	144.55	62.92
         562	1	188	1	0.0	86.34	148.13	62.06
         563	1	188	3	0.0	86.01	149.25	60.0
         564	1	188	4	0.0	85.62	148.8	63.3
         565	1	189	1	0.0	88.41999	150.7	60.300003
         566	1	189	3	0.0	88.350006	150.48	57.92
         567	1	189	4	0.0	89.71	151.32	60.83
         568	1	190	1	0.0	89.64	147.96	57.74
         569	1	190	3	0.0	88.45	147.87	55.6
         570	1	190	4	0.0	90.31999	146.62	57.890003
         571	1	191	1	0.0	86.08	147.05	57.08
         572	1	191	3	0.0	84.74	148.1	55.379997
         573	1	191	4	0.0	85.28	146.2	58.09
         574	1	192	1	0.0	84.69	150.54	56.77
         575	1	192	3	0.0	84.57	151.52	54.64
         576	1	192	4	0.0	84.84	151.53	57.96
         577	1	193	1	0.0	87.36	151.67	54.26
         578	1	193	3	0.0	87.45	151.01	51.94
         579	1	193	4	0.0	88.85	151.88	54.79
         580	1	194	1	0.0	86.94001	148.36	52.369995
         581	1	194	3	0.0	85.31	148.51	50.51
         582	1	194	4	0.0	87.11	146.94	53.02
         583	1	195	1	0.0	83.18	149.19	52.18
         584	1	195	3	0.0	82.15	150.35	50.24
         585	1	195	4	0.0	82.23	149.6	53.410004
         586	1	196	1	0.0	83.87	152.44	50.429996
         587	1	196	3	0.0	84.79	153.26	48.34
         588	1	196	4	0.0	84.2	153.63	51.379997
         589	1	197	1	0.0	86.15	150.88	47.71
         590	1	197	3	0.0	85.04	148.82	47.39
         591	1	197	4	0.0	87.590004	150.56	48.26
         592	1	198	1	0.0	85.16	148.75	44.680004
         593	1	198	3	0.0	87.020004	147.22	44.86
         594	1	198	4	0.0	85.2	149.17	43.2
         595	1	199	1	0.0	85.23	144.91	45.28
         596	1	199	3	0.0	86.93	143.53	44.369995
         597	1	199	4	0.0	83.91	144.19	45.479996
         598	1	200	1	0.0	86.19999	144.08	41.68
         599	1	200	3	0.0	87.020004	146.13	40.7
         600	1	200	4	0.0	85.12	143.75	40.6
         601	1	201	1	0.0	89.71	145.42	40.63
         602	1	201	3	0.0	91.12	143.49	40.18
         603	1	201	4	0.0	90.41	146.23	41.71
         604	1	202	1	0.0	91.83001	144.41	37.58
         605	1	202	3	0.0	93.74	145.31	38.74
         606	1	202	4	0.0	91.69	144.77	36.07
         607	1	203	1	0.0	95.329994	142.92	38.7
         608	1	203	3	0.0	94.72	143.56	41.01
         609	1	203	4	0.0	96.5	143.83	38.25
         610	1	204	1	0.0	95.90001	141.38	42.22
         611	1	204	3	0.0	97.54	141.44	43.93
         612	1	204	4	0.0	95.62	139.91	42.54
         613	1	205	1	0.0	99.36	143.01	42.53
         614	1	205	3	0.0	99.11	144.85	41.03
         615	1	205	4	0.0	100.36	141.94	41.99
         616	1	206	1	0.0	101.09	146.29	42.2
         617	1	206	3	0.0	99.04	147.26	43.219997
         618	1	206	5	0.0	100.729996	137.54220279	38.95715887
         619	1	207	1	0.0	99.64	149.82	42.14
         620	1	207	3	0.0	98.27	149.33	40.22
         621	1	207	4	0.0	100.48	151.09	42.01
         622	1	208	1	0.0	96.05	150.5	41.13
         623	1	208	3	0.0	95.32	152.09	39.5
         624	1	208	4	0.0	94.85	150.62	42.09
         625	1	209	1	0.0	97.44	153.9	39.78
         626	1	209	3	0.0	98.6	154.74	37.85
         627	1	209	4	0.0	98.11	154.96	40.73
         628	1	210	1	0.0	99.08999	152.23	36.64
         629	1	210	3	0.0	97.6	150.34	36.6
         630	1	210	4	0.0	100.64	151.79	36.87
         631	1	211	1	0.0	97.74	149.97	33.83
         632	1	211	3	0.0	99.52	148.5	34.52
         633	1	211	4	0.0	97.72	150.27	32.27
         634	1	212	1	0.0	98.03	146.08	33.92
         635	1	212	3	0.0	98.01	144.43	32.24
         636	1	212	4	0.0	97.66	145.52	35.26
         637	1	213	1	0.0	95.58001	145.07	31.19
         638	1	213	3	0.0	95.29	147.29	30.27
         639	1	213	4	0.0	94.11	144.71	31.43
         640	1	214	1	0.0	95.96	146.68	27.76
         641	1	214	3	0.0	94.79	147.15	25.78
         642	1	214	4	0.0	97.25	146.53	26.96
         643	1	215	1	0.0	92.53999	145.78	26.609999
         644	1	215	3	0.0	91.72	146.79	28.62
         645	1	215	4	0.0	91.98	144.4	26.41
         646	1	216	1	0.0	89.42	147.99	27.41
         647	1	216	3	0.0	89.560005	149.97	28.68
         648	1	216	4	0.0	88.57	147.15	28.370003
         649	1	217	1	0.0	91.66	151.05	27.36
         650	1	217	3	0.0	90.73	153.04	28.12
         651	1	217	4	0.0	92.98999	151.22	26.579998
         652	1	218	1	0.0	89.77	151.67	24.96
         653	1	218	3	0.0	87.93	150.79	26.08
         654	1	218	4	0.0	89.25	152.76	23.9
         655	1	219	1	0.0	87.20999	148.98	24.1
         656	1	219	3	0.0	88.88	147.29	24.150002
         657	1	219	4	0.0	86.63999	148.91	22.609999