ITEM: TIMESTEP
0
ITEM: NUMBER OF ATOMS
8634
ITEM: BOX BOUNDS ss ss ss
32.78 158.16
6.11 160.5
-7.4 128.11
ITEM: ATOMS id type xs ys zs
1 1 0.307545 0.859771 0.827836
2 3 0.292072 0.869292 0.829607
3 4 0.306827 0.854783 0.838019
4 1 0.282182 0.863851 0.813077
5 3 0.272133 0.854913 0.823851
6 4 0.280906 0.860418 0.802229
7 1 0.25315 0.86411 0.819644
8 3 0.252433 0.858087 0.803778
9 4 0.244616 0.8713 0.821046
10 1 0.237598 0.845392 0.80887
11 3 0.23688 0.842088 0.791676
12 4 0.23018 0.839109 0.814626
13 1 0.223481 0.856144 0.787322
14 3 0.23042 0.857374 0.77153
15 4 0.214548 0.862556 0.788429
16 1 0.250359 0.864499 0.777729
17 3 0.260408 0.855366 0.766585
18 4 0.257457 0.872142 0.782525
19 1 0.262881 0.841829 0.779426
20 3 0.262482 0.833992 0.763781
21 4 0.265034 0.835417 0.787543
22 1 0.239671 0.832178 0.76511
23 3 0.239193 0.832956 0.74703
24 4 0.228585 0.832178 0.76998
25 1 0.242064 0.850055 0.745923
26 3 0.255144 0.847853 0.731902
27 4 0.24007 0.859771 0.747989
28 1 0.272611 0.848047 0.744668
29 3 0.280587 0.83885 0.732566
30 4 0.27947 0.849019 0.754262
31 1 0.270219 0.824082 0.739798
32 3 0.268065 0.818965 0.723194
33 4 0.263838 0.818317 0.746808
34 1 0.249163 0.829846 0.720242
35 3 0.255463 0.830883 0.703712
36 4 0.238714 0.835482 0.722161
37 1 0.269261 0.844226 0.706664
38 3 0.282023 0.839821 0.694487
39 4 0.274366 0.852775 0.71028
40 1 0.292551 0.828616 0.708213
41 3 0.294066 0.81903 0.694561
42 4 0.297256 0.825313 0.717954
43 1 0.275164 0.810933 0.697218
44 3 0.27636 0.809508 0.679212
45 4 0.264556 0.808213 0.701203
46 1 0.268304 0.826025 0.675079
47 3 0.278912 0.82324 0.659804
48 4 0.263519 0.835093 0.676186
49 1 0.298054 0.829587 0.668733
50 3 0.304514 0.819872 0.656409
51 4 0.306827 0.832502 0.675891
52 1 0.302999 0.805428 0.668807
53 3 0.300287 0.797331 0.654417
54 4 0.304435 0.799663 0.677736
55 1 0.277716 0.80044 0.653531
56 3 0.280188 0.800764 0.635746
57 4 0.265832 0.801477 0.655819
58 1 0.285612 0.81754 0.634271
59 3 0.297336 0.81333 0.620987
60 4 0.287207 0.826867 0.637444
61 1 0.314883 0.808796 0.632057
62 3 0.317993 0.798238 0.619954
63 4 0.323736 0.808407 0.640765
64 1 0.303238 0.785867 0.628588
65 3 0.29933 0.782823 0.611099
66 4 0.296698 0.781268 0.637075
67 1 0.283777 0.795518 0.609844
68 3 0.288563 0.797008 0.592207
69 4 0.274765 0.802448 0.611689
70 1 0.307864 0.80627 0.596856
71 3 0.314883 0.797655 0.584385
72 5 0.298772 0.759552 0.558876
73 1 0.320705 0.784183 0.596709
74 3 0.317355 0.775115 0.582245
75 4 0.325171 0.778807 0.60549
76 1 0.294864 0.774014 0.584901
77 3 0.295023 0.774208 0.567486
78 4 0.283777 0.773431 0.589403
79 1 0.294704 0.792085 0.566305
80 3 0.304435 0.788393 0.55162
81 4 0.293029 0.80206 0.568888
82 1 0.324294 0.787098 0.560549
83 3 0.327165 0.776734 0.548447
84 4 0.334583 0.790012 0.566379
85 1 0.319748 0.761966 0.558926
86 3 0.31592 0.756137 0.54306
87 4 0.315202 0.756461 0.567191
88 1 0.297177 0.765399 0.540846
89 3 0.295821 0.769091 0.523209
90 4 0.28625 0.767666 0.5452
91 1 0.313128 0.780621 0.525054
92 3 0.320865 0.773431 0.51059
93 4 0.319429 0.789041 0.52771
94 1 0.33554 0.764039 0.522102
95 3 0.327006 0.750049 0.520921
96 4 0.343755 0.761707 0.530588
97 1 0.331791 0.749401 0.500184
98 3 0.346068 0.740527 0.50535
99 4 0.334104 0.752251 0.489041
100 1 0.335779 0.724594 0.50166
101 3 0.341602 0.713 0.492436
102 4 0.326687 0.719282 0.506974
103 1 0.343675 0.723233 0.47443
104 3 0.36194 0.72142 0.478046
105 4 0.344074 0.731524 0.467641
106 1 0.364332 0.706976 0.463803
107 3 0.376535 0.718116 0.459154
108 4 0.363694 0.701017 0.454579
109 1 0.392646 0.711898 0.472659
110 3 0.396076 0.724399 0.48299
111 4 0.400463 0.71559 0.46491
112 1 0.383315 0.717404 0.498266
113 3 0.393284 0.72129 0.512287
114 4 0.373265 0.712611 0.501439
115 1 0.406365 0.70717 0.512361
116 3 0.420083 0.714684 0.521659
117 4 0.411868 0.698491 0.50963
118 1 0.426942 0.724917 0.506309
119 3 0.430292 0.739815 0.50321
120 4 0.435556 0.722197 0.499151
121 1 0.408359 0.74409 0.503727
122 3 0.410273 0.745061 0.521142
123 4 0.395916 0.743248 0.50166
124 1 0.413782 0.762485 0.521733
125 3 0.403254 0.765529 0.536566
126 4 0.419206 0.771034 0.519297
127 1 0.383474 0.766047 0.525349
128 3 0.375419 0.760477 0.53996
129 4 0.375498 0.767731 0.516346
130 1 0.381401 0.743118 0.535016
131 3 0.38483 0.741952 0.553317
132 4 0.385069 0.735086 0.529481
133 1 0.404291 0.748947 0.554276
134 3 0.398947 0.755554 0.570069
135 4 0.416494 0.750631 0.551989
136 1 0.389695 0.770451 0.560106
137 3 0.375738 0.771229 0.572282
138 4 0.389057 0.777706 0.551915
139 1 0.364332 0.757951 0.564091
140 3 0.361302 0.752121 0.580326
141 4 0.359547 0.752121 0.556048
142 1 0.377732 0.740527 0.58099
143 3 0.377652 0.742276 0.599218
144 4 0.387781 0.73554 0.577448
145 1 0.387861 0.758339 0.597594
146 3 0.377732 0.762938 0.61132
147 4 0.394481 0.766241 0.5942
148 1 0.359547 0.766436 0.599365
149 3 0.347105 0.762161 0.610582
150 4 0.353565 0.769804 0.590067
151 1 0.3487 0.744543 0.606966
152 3 0.347743 0.742989 0.62453
153 4 0.34878 0.735734 0.601358
154 1 0.370873 0.743831 0.626596
155 3 0.368081 0.749595 0.642757
156 4 0.382358 0.743248 0.624382
157 1 0.362338 0.766241 0.636189
158 3 0.34854 0.764816 0.648365
159 4 0.362418 0.774014 0.629179
160 1 0.332908 0.758274 0.636927
161 3 0.326527 0.75251 0.65176
162 4 0.32557 0.756461 0.628146
163 1 0.339767 0.738001 0.651243
164 3 0.339209 0.740139 0.669323
165 4 0.346786 0.730164 0.648144
166 1 0.356117 0.751797 0.668954
167 3 0.346546 0.757756 0.68268
168 4 0.366645 0.756267 0.666076
169 1 0.332988 0.768703 0.673161
170 3 0.320625 0.766436 0.68578
171 5 0.341203 0.725772 0.634661
172 1 0.314883 0.749725 0.679507
173 3 0.311134 0.744932 0.695816
174 4 0.311772 0.74111 0.673234
175 1 0.332908 0.742924 0.701424
176 3 0.333227 0.749789 0.717585
177 4 0.344234 0.737613 0.699432
178 1 0.337215 0.766306 0.70932
179 3 0.326448 0.771747 0.722013
180 4 0.34216 0.773237 0.702679
181 1 0.307386 0.770451 0.712272
182 3 0.299649 0.773107 0.727326
183 4 0.298213 0.768508 0.704745
184 1 0.298772 0.757886 0.735001
185 3 0.301882 0.765658 0.750277
186 4 0.297815 0.747782 0.735075
187 1 0.324693 0.765594 0.74821
188 3 0.323257 0.779455 0.757066
189 4 0.336098 0.763974 0.744963
190 1 0.321662 0.788717 0.738839
191 3 0.312091 0.797979 0.749908
192 4 0.320386 0.790854 0.727695
193 1 0.292232 0.789429 0.747104
194 3 0.287287 0.793251 0.764076
195 4 0.283538 0.782952 0.743119
196 1 0.298213 0.779908 0.772415
197 3 0.303158 0.789624 0.786215
198 4 0.301643 0.770451 0.774408
199 1 0.320625 0.795518 0.776695
200 3 0.318711 0.809897 0.784223
201 4 0.331712 0.796166 0.772046
202 1 0.302122 0.815532 0.771825
203 3 0.291434 0.822009 0.784592
204 4 0.297416 0.817216 0.76201
205 1 0.278434 0.807112 0.787174
206 3 0.274047 0.804845 0.80459
207 4 0.270378 0.801023 0.782009
208 1 0.291354 0.795259 0.809461
209 3 0.30914 0.800829 0.808206
210 4 0.289281 0.785219 0.809461
211 1 0.314085 0.798756 0.828278
212 3 0.324214 0.787616 0.820604
213 5 0.304275 0.750262 0.785993
214 1 0.344234 0.794935 0.824958
215 3 0.348301 0.789429 0.841266
216 4 0.352768 0.80193 0.824367
217 1 0.352768 0.772913 0.835363
218 3 0.359228 0.75821 0.832337
219 4 0.343436 0.768638 0.840971
220 1 0.363535 0.75957 0.813003
221 3 0.35213 0.753481 0.800827
222 4 0.375259 0.759181 0.810198
223 1 0.351491 0.765788 0.786953
224 3 0.34551 0.753352 0.778024
225 4 0.355798 0.773884 0.781492
226 1 0.367363 0.748559 0.774703
227 3 0.383315 0.751344 0.782525
228 4 0.369357 0.751279 0.76356
229 1 0.390892 0.73405 0.780164
230 3 0.399107 0.740657 0.766143
231 4 0.390094 0.724982 0.777212
232 1 0.419285 0.742082 0.776695
233 3 0.429016 0.744219 0.762453
234 4 0.426783 0.742794 0.78592
235 1 0.430611 0.727249 0.756328
236 3 0.427022 0.730099 0.739429
237 4 0.433562 0.717339 0.757066
238 1 0.40461 0.72984 0.741421
239 3 0.40453 0.742017 0.729983
240 4 0.392487 0.72835 0.743857
241 1 0.409874 0.754388 0.744447
242 3 0.419445 0.762549 0.732861
243 4 0.410512 0.760088 0.753598
244 1 0.439544 0.751992 0.735222
245 3 0.441857 0.753935 0.717438
246 4 0.448237 0.746486 0.740019
247 1 0.427181 0.740786 0.712567
248 3 0.420242 0.749725 0.699506
249 4 0.423513 0.731395 0.711903
250 1 0.405966 0.758987 0.71146
251 3 0.410432 0.770711 0.699506
252 4 0.396076 0.760347 0.718545
253 1 0.426145 0.777706 0.711387
254 3 0.435396 0.782305 0.69648
255 4 0.432445 0.780944 0.720168
256 1 0.443292 0.765917 0.692347
257 3 0.439225 0.768897 0.676112
258 4 0.449274 0.757044 0.693454
259 1 0.419126 0.762355 0.675448
260 3 0.416015 0.774467 0.663641
261 4 0.408997 0.756655 0.675965
262 1 0.411469 0.786126 0.6784
263 3 0.419525 0.796101 0.666814
264 4 0.408119 0.790077 0.688436
265 1 0.440341 0.793316 0.673751
266 3 0.446084 0.794158 0.656926
267 4 0.448875 0.79338 0.680909
268 1 0.444728 0.776605 0.652867
269 3 0.441777 0.781916 0.636632
270 4 0.441857 0.76663 0.653974
271 1 0.419764 0.783665 0.638698
272 3 0.42112 0.79623 0.628072
273 4 0.407721 0.782175 0.64165
274 1 0.427979 0.806982 0.642609
275 3 0.439703 0.813071 0.630802
276 4 0.428458 0.812034 0.652867
277 1 0.456373 0.801412 0.634197
278 3 0.460201 0.803549 0.616855
279 4 0.464189 0.794741 0.638477
280 1 0.445286 0.791632 0.61132
281 3 0.440501 0.800764 0.597668
282 4 0.438427 0.7836 0.611763
283 1 0.428298 0.812164 0.608147
284 3 0.435875 0.822981 0.598258
285 4 0.419923 0.81618 0.61501
286 1 0.451986 0.826219 0.612575
287 3 0.463471 0.829846 0.598332
288 4 0.456851 0.828422 0.622537
289 1 0.468177 0.81184 0.594052
290 3 0.46698 0.814366 0.57671
291 4 0.471686 0.802643 0.596266
292 1 0.445047 0.811322 0.575161
293 3 0.447918 0.822592 0.563206
294 4 0.432844 0.80912 0.577965
295 1 0.443691 0.83587 0.575825
296 3 0.455575 0.843772 0.564903
297 4 0.44082 0.840275 0.585787
298 1 0.474159 0.836065 0.573832
299 3 0.483251 0.835676 0.558261
300 4 0.481735 0.832632 0.581581
301 1 0.474398 0.820196 0.551915
302 3 0.474717 0.826349 0.53627
303 4 0.468257 0.811257 0.551915
304 1 0.455017 0.833992 0.537451
305 3 0.46379 0.846363 0.529481
306 4 0.442734 0.835287 0.539886
307 1 0.470729 0.854136 0.544978
308 3 0.484846 0.858216 0.534352
309 4 0.473441 0.857892 0.555679
310 1 0.497049 0.843902 0.537156
311 3 0.501675 0.846363 0.51974
312 4 0.501994 0.835676 0.541141
313 1 0.482693 0.838267 0.512287
314 3 0.485963 0.849148 0.500701
315 4 0.471686 0.833085 0.512361
316 1 0.4736 0.862297 0.50963
317 3 0.486122 0.871753 0.501291
318 4 0.465066 0.866636 0.516419
319 1 0.502153 0.870199 0.516715
320 3 0.514117 0.875057 0.505276
321 4 0.507019 0.868385 0.526972
322 1 0.515632 0.85867 0.495166
323 3 0.514596 0.860613 0.477382
324 4 0.51978 0.849213 0.495314
325 1 0.492184 0.862621 0.477308
326 3 0.484447 0.873632 0.467198
327 4 0.481496 0.857568 0.48026
328 1 0.495135 0.887363 0.476496
329 3 0.49673 0.894682 0.460925
330 4 0.5 0.893322 0.484466
331 1 0.514277 0.886262 0.454431
332 3 0.524326 0.873826 0.45849
333 4 0.520179 0.894682 0.45207
334 1 0.52967 0.870005 0.437606
335 3 0.546897 0.873632 0.438344
336 4 0.522651 0.862685 0.432883
337 1 0.533658 0.878425 0.416279
338 3 0.52624 0.889565 0.426611
339 4 0.540437 0.881404 0.407424
340 1 0.509332 0.892804 0.414213
341 3 0.499681 0.885355 0.426168
342 4 0.501276 0.894164 0.404989
343 1 0.494497 0.898828 0.438344
344 3 0.477429 0.8952 0.431702
345 4 0.491865 0.90809 0.442108
346 1 0.472563 0.882764 0.446535
347 3 0.474797 0.873049 0.433105
348 4 0.461796 0.887039 0.443805
349 1 0.47711 0.857568 0.444395
350 3 0.457729 0.85569 0.443436
351 4 0.481576 0.851545 0.452218
352 1 0.457729 0.842801 0.429562
353 3 0.451986 0.828033 0.428382
354 4 0.456293 0.84429 0.41805
355 1 0.47025 0.821232 0.439672
356 3 0.455894 0.817864 0.451111
357 4 0.48022 0.821102 0.445797
358 1 0.45382 0.801023 0.44565
359 3 0.464428 0.789688 0.438492
360 4 0.442256 0.802124 0.440558
361 1 0.464029 0.778418 0.454431
362 3 0.461318 0.774726 0.471257
363 4 0.476232 0.777382 0.455391
364 1 0.446164 0.762161 0.468305
365 3 0.452066 0.755489 0.482769
366 4 0.436752 0.756526 0.46373
367 1 0.470171 0.747069 0.473397
368 3 0.479582 0.749919 0.488008
369 4 0.476711 0.742341 0.465722
370 1 0.484926 0.766177 0.484687
371 3 0.481895 0.768444 0.501439
372 4 0.488196 0.775309 0.481072
373 1 0.460759 0.772589 0.49952
374 3 0.457489 0.767925 0.515903
375 4 0.449753 0.774921 0.494281
376 1 0.461318 0.749854 0.51059
377 3 0.47025 0.748688 0.526677
378 4 0.459324 0.741434 0.504538
379 1 0.49003 0.750502 0.519814
380 3 0.494736 0.758469 0.533983
381 4 0.500638 0.751992 0.51391
382 1 0.483171 0.773625 0.529703
383 3 0.479024 0.774662 0.546823
384 4 0.479183 0.781009 0.52284
385 1 0.4606 0.764363 0.545938
386 3 0.465545 0.759376 0.562099
387 4 0.448716 0.762096 0.543945
388 1 0.477987 0.745515 0.553612
389 3 0.489313 0.746486 0.568076
390 4 0.481975 0.737936 0.546676
391 1 0.500638 0.76093 0.561435
392 3 0.498325 0.76676 0.578112
393 4 0.506221 0.765982 0.553538
394 1 0.479662 0.777058 0.573906
395 3 0.480061 0.774402 0.590584
396 4 0.469373 0.780815 0.569478
397 1 0.468097 0.759117 0.589255
398 3 0.475993 0.754971 0.604457
399 4 0.458686 0.753287 0.585418
400 1 0.494656 0.747976 0.595307
401 3 0.503589 0.753481 0.609475
402 4 0.50327 0.743895 0.588148
403 1 0.505264 0.770322 0.602612
404 3 0.502792 0.77518 0.618921
405 4 0.508933 0.777706 0.595676
406 1 0.48038 0.774921 0.61715
407 3 0.479901 0.771488 0.634344
408 4 0.469293 0.775698 0.613017
409 1 0.482055 0.754129 0.633385
410 3 0.4933 0.756655 0.647406
411 4 0.480938 0.744802 0.630507
412 1 0.512442 0.758922 0.636927
413 3 0.518504 0.766241 0.651317
414 5 0.501436 0.704207 0.60009
415 1 0.510767 0.782952 0.644454
416 3 0.504147 0.787357 0.659804
417 4 0.509571 0.79066 0.637222
418 1 0.486122 0.778418 0.660394
419 3 0.487318 0.775309 0.677736
420 4 0.474398 0.775309 0.657516
421 1 0.49992 0.760218 0.676112
422 3 0.502153 0.762485 0.693233
423 4 0.507497 0.753417 0.671021
424 1 0.517307 0.774532 0.693159
425 3 0.512602 0.783665 0.707106
426 4 0.527915 0.778742 0.689765
427 1 0.495613 0.791567 0.696775
428 3 0.490509 0.796036 0.712494
429 4 0.488036 0.794935 0.688362
430 1 0.480459 0.781009 0.719209
431 3 0.486122 0.774597 0.733747
432 4 0.469214 0.778159 0.716478
433 1 0.498245 0.761384 0.725777
434 3 0.507896 0.762096 0.741274
435 4 0.502792 0.754453 0.718766
436 1 0.523768 0.774273 0.732713
437 3 0.528394 0.7779 0.74917
438 4 0.529829 0.779779 0.725113
439 1 0.50973 0.789559 0.749834
440 3 0.505743 0.786515 0.766512
441 5 0.514197 0.744585 0.708023
442 1 0.496251 0.770646 0.763191
443 3 0.504227 0.762873 0.77581
444 4 0.488036 0.763845 0.758985
445 1 0.524246 0.76106 0.765995
446 3 0.533418 0.763132 0.781123
447 4 0.532701 0.757756 0.758394
448 1 0.531664 0.781074 0.781271
449 3 0.533498 0.781074 0.799498
450 4 0.529829 0.790401 0.777802
451 1 0.511724 0.779584 0.801343
452 3 0.497687 0.770711 0.794628
453 4 0.50646 0.788652 0.801786
454 1 0.494018 0.761707 0.812265
455 3 0.477588 0.761578 0.820899
456 4 0.497049 0.752769 0.817504
457 1 0.476631 0.779066 0.824367
458 3 0.461716 0.788911 0.820677
459 4 0.481018 0.78645 0.831083
460 1 0.463631 0.786839 0.800531
461 3 0.444808 0.79215 0.799129
462 4 0.467858 0.784636 0.790126
463 1 0.435715 0.77654 0.802598
464 3 0.434041 0.77803 0.820087
465 4 0.43436 0.766565 0.800753
466 1 0.414739 0.786903 0.818611
467 3 0.399745 0.777382 0.813814
468 4 0.415218 0.797008 0.81898
469 1 0.385149 0.784118 0.825622
470 3 0.368241 0.786126 0.817357
471 4 0.381321 0.785802 0.836027
472 1 0.37486 0.798562 0.804738
473 3 0.385388 0.788782 0.795808
474 5 0.380603 0.750359 0.75501
475 1 0.380603 0.797396 0.776695
476 3 0.39815 0.799858 0.78164
477 4 0.377173 0.804456 0.76939
478 1 0.406524 0.786774 0.768652
479 3 0.419206 0.783406 0.755885
480 4 0.403892 0.777188 0.769759
481 1 0.41458 0.79785 0.744742
482 3 0.431728 0.803096 0.742307
483 4 0.406843 0.802578 0.737879
484 1 0.429255 0.815467 0.758173
485 3 0.435476 0.829911 0.755073
486 4 0.428777 0.815273 0.769906
487 1 0.414739 0.836647 0.75345
488 3 0.42112 0.835676 0.736846
489 4 0.415696 0.84306 0.761863
490 1 0.423672 0.854006 0.735222
491 3 0.442335 0.855302 0.739576
492 4 0.418807 0.863592 0.736329
493 1 0.448477 0.857763 0.719799
494 3 0.450471 0.872725 0.725777
495 4 0.449274 0.857568 0.708287
496 1 0.470011 0.870328 0.733525
497 3 0.481257 0.882181 0.728507
498 4 0.475355 0.865859 0.742602
499 1 0.488595 0.873956 0.711165
500 3 0.490349 0.879072 0.693897
501 4 0.498564 0.867997 0.709468
502 1 0.46722 0.882441 0.692716
503 3 0.472324 0.891055 0.678326
504 4 0.455814 0.884189 0.695742
505 1 0.4803 0.904657 0.689174
506 3 0.492343 0.907507 0.675743
507 4 0.481018 0.911782 0.696849
508 1 0.507816 0.897014 0.680835
509 3 0.514356 0.88976 0.667626
510 4 0.517387 0.896107 0.687625
511 1 0.498086 0.877065 0.667847
512 3 0.491785 0.881793 0.651981
513 5 0.49984 0.810419 0.627102
514 1 0.469453 0.880174 0.657442
515 3 0.464986 0.889436 0.644307
516 4 0.459084 0.877712 0.663567
517 1 0.471208 0.904398 0.654712
518 3 0.481975 0.906794 0.640027
519 4 0.468496 0.911393 0.662165
520 1 0.500798 0.910422 0.648661
521 3 0.507338 0.907183 0.63213
522 4 0.50997 0.911134 0.655893
523 1 0.510927 0.889695 0.636263
524 3 0.507896 0.878878 0.624677
525 4 0.517626 0.8827 0.641429
526 1 0.486441 0.881469 0.623127
527 3 0.479104 0.88976 0.609992
528 4 0.481496 0.874539 0.629621
529 1 0.464907 0.898309 0.620323
530 3 0.466183 0.909126 0.606302
531 4 0.456851 0.900576 0.628736
532 1 0.483729 0.917417 0.611246
533 3 0.48676 0.917676 0.593462
534 4 0.491785 0.923441 0.61656
535 1 0.494896 0.901678 0.590953
536 3 0.484288 0.899216 0.576858
537 4 0.503828 0.8952 0.592871
538 1 0.466741 0.89261 0.585713
539 3 0.457011 0.900317 0.573758
540 4 0.459244 0.887622 0.593757
541 1 0.45741 0.916769 0.583352
542 3 0.458127 0.921303 0.566453
543 4 0.458127 0.924283 0.591248
544 1 0.479423 0.922663 0.565198
545 3 0.476312 0.918971 0.548078
546 4 0.491466 0.925319 0.567191
547 1 0.475833 0.901095 0.551694
548 3 0.462833 0.902131 0.538115
549 4 0.479183 0.891573 0.555088
550 1 0.444728 0.90375 0.549775
551 3 0.438427 0.912624 0.53627
552 4 0.436593 0.902325 0.557745
553 1 0.446722 0.927456 0.542174
554 3 0.448716 0.929788 0.525275
555 4 0.449035 0.935423 0.54852
556 1 0.468895 0.921498 0.52284
557 3 0.461477 0.91949 0.506236
558 4 0.48014 0.916445 0.523873
559 1 0.450391 0.904333 0.512582
560 3 0.439305 0.909321 0.499889
561 4 0.44728 0.89669 0.518928
562 1 0.427181 0.919878 0.512582
563 3 0.424549 0.927133 0.49738
564 4 0.421439 0.924218 0.521733
565 1 0.443771 0.936524 0.499594
566 3 0.443213 0.935099 0.482031
567 4 0.45406 0.94054 0.503505
568 1 0.453501 0.918777 0.480703
569 3 0.44401 0.918194 0.46491
570 4 0.458925 0.910098 0.481809
571 1 0.425108 0.912883 0.475832
572 3 0.41442 0.919684 0.463287
573 4 0.418727 0.907377 0.483285
574 1 0.414021 0.935488 0.473544
575 3 0.413064 0.941836 0.457826
576 4 0.415218 0.9419 0.482326
577 1 0.435317 0.942807 0.455022
578 3 0.436034 0.938532 0.437901
579 4 0.447201 0.944167 0.458933
580 1 0.431967 0.921368 0.441074
581 3 0.418966 0.92234 0.427349
582 4 0.433323 0.91217 0.445871
583 1 0.401978 0.926744 0.439672
584 3 0.393763 0.934257 0.425356
585 4 0.394401 0.9294 0.448749
586 1 0.407481 0.947795 0.426758
587 3 0.414819 0.953106 0.411335
588 4 0.410113 0.955502 0.433769
589 1 0.425666 0.93769 0.406686
590 3 0.416813 0.924347 0.404324
591 4 0.437151 0.935618 0.410745
592 1 0.41777 0.923894 0.384326
593 3 0.432605 0.913984 0.385654
594 4 0.418089 0.926614 0.373404
595 1 0.418328 0.899022 0.388754
596 3 0.431887 0.890084 0.382038
597 4 0.4078 0.894358 0.390229
598 1 0.426065 0.893646 0.362187
599 3 0.432605 0.906924 0.354955
600 4 0.417451 0.891509 0.354217
601 1 0.45406 0.902325 0.354439
602 3 0.465305 0.889824 0.351118
603 4 0.459643 0.907572 0.362409
604 1 0.470968 0.895783 0.331931
605 3 0.486202 0.901613 0.340491
606 4 0.469852 0.898115 0.320788
607 1 0.498883 0.886133 0.340196
608 3 0.494018 0.890278 0.357243
609 4 0.508215 0.892027 0.336876
610 1 0.50343 0.876158 0.366172
611 3 0.51651 0.876546 0.378791
612 4 0.501196 0.866636 0.368534
613 1 0.531026 0.886715 0.36846
614 3 0.529032 0.898633 0.357391
615 4 0.539001 0.879785 0.364475
616 1 0.544824 0.90796 0.366025
617 3 0.528473 0.914243 0.373552
618 5 0.541952 0.8513 0.342094
619 1 0.533259 0.930825 0.365582
620 3 0.522332 0.927651 0.351413
621 4 0.539959 0.93905 0.364623
622 1 0.504626 0.935229 0.358129
623 3 0.498804 0.945528 0.3461
624 4 0.495055 0.936006 0.365213
625 1 0.515712 0.957251 0.348166
626 3 0.524964 0.962692 0.333924
627 4 0.521056 0.964117 0.355177
628 1 0.528872 0.946434 0.324994
629 3 0.516988 0.934193 0.324699
630 4 0.541235 0.943584 0.326692
631 1 0.518105 0.931796 0.304258
632 3 0.532302 0.922275 0.30935
633 4 0.517945 0.933739 0.292746
634 1 0.520418 0.9066 0.304922
635 3 0.520258 0.895913 0.292525
636 4 0.517467 0.902973 0.314811
637 1 0.500877 0.900058 0.284776
638 3 0.498564 0.914437 0.277987
639 4 0.489153 0.897727 0.286547
640 1 0.503908 0.910486 0.259464
641 3 0.494576 0.913531 0.244853
642 4 0.514197 0.909515 0.253561
643 1 0.476631 0.904657 0.250978
644 3 0.470091 0.911199 0.265811
645 4 0.472165 0.895719 0.249502
646 1 0.451747 0.918971 0.256881
647 3 0.452863 0.931796 0.266253
648 4 0.444967 0.913531 0.263966
649 1 0.469612 0.938791 0.256512
650 3 0.462195 0.951681 0.262121
651 4 0.48022 0.939892 0.250756
652 1 0.454538 0.942807 0.238802
653 3 0.439863 0.937107 0.247067
654 4 0.450391 0.949867 0.230979
655 1 0.43412 0.925384 0.232455
656 3 0.44744 0.914437 0.232824
657 4 0.429574 0.92493 0.22146
658 1 0.43412 0.900836 0.238949
659 3 0.42447 0.896755 0.223526
660 4 0.42766 0.896366 0.246919
661 1 0.441219 0.887687 0.216294
662 3 0.426783 0.877129 0.218582
663 4 0.451348 0.882311 0.214966
664 1 0.421678 0.877259 0.198509
665 3 0.432047 0.873891 0.184045
666 4 0.413383 0.883218 0.193639
667 1 0.426942 0.856726 0.183603
668 3 0.421519 0.850055 0.16877
669 4 0.429893 0.847723 0.188695
670 1 0.402696 0.857698 0.166777
671 3 0.408279 0.871753 0.160505
672 4 0.390573 0.858087 0.169803
673 1 0.407162 0.866896 0.140654
674 3 0.389935 0.872725 0.140728
675 4 0.410991 0.861649 0.131872
676 1 0.393524 0.884254 0.125747
677 3 0.37845 0.89384 0.131134
678 4 0.38499 0.879655 0.119327
679 1 0.39137 0.901937 0.146115
680 3 0.396634 0.916251 0.140801
681 4 0.399506 0.902973 0.154158
682 1 0.376535 0.91936 0.13202
683 3 0.372308 0.92642 0.147
684 4 0.365529 0.918 0.127149
685 1 0.382916 0.942548 0.140506
686 3 0.378689 0.950126 0.126042
687 4 0.394959 0.944945 0.13999
688 1 0.361302 0.958223 0.134603
689 3 0.357154 0.966319 0.149731
690 4 0.351491 0.952652 0.133569
691 1 0.351093 0.981281 0.140654
692 3 0.335221 0.973962 0.144491
693 4 0.349178 0.989118 0.133274
694 1 0.347663 0.989831 0.160431
695 3 0.353804 0.980698 0.172607
696 4 0.341921 0.997344 0.16567
697 1 0.375818 0.98439 0.168844
698 3 0.375419 0.995336 0.181758
699 4 0.385787 0.986398 0.162423
700 1 0.384591 0.98452 0.195189
701 3 0.403254 0.985167 0.190761
702 4 0.382118 0.976877 0.202347
703 1 0.408119 0.992098 0.210538
704 3 0.406046 0.979208 0.220131
705 4 0.407401 0.999741 0.21836
706 1 0.42758 0.976359 0.222493
707 3 0.427181 0.98873 0.234079
708 4 0.438268 0.974804 0.218139
709 1 0.431728 0.97869 0.250904
710 3 0.448716 0.983742 0.244705
711 5 0.428298 0.914404 0.247251
712 1 0.457569 0.984779 0.263744
713 3 0.460999 0.969363 0.265589
714 4 0.458287 0.988341 0.274076
715 1 0.479582 0.968975 0.255479
716 3 0.493938 0.959389 0.262711
717 4 0.486681 0.970529 0.245886
718 1 0.487717 0.9647 0.282267
719 3 0.48349 0.955178 0.29555
720 4 0.488754 0.972472 0.289499
721 1 0.468575 0.94488 0.285145
722 3 0.46044 0.952847 0.298428
723 5 0.474876 0.874701 0.26871
724 1 0.447839 0.937885 0.304037
725 3 0.453501 0.924218 0.308833
726 4 0.436593 0.935164 0.300568
727 1 0.457011 0.927651 0.328832
728 3 0.449673 0.914178 0.333481
729 4 0.460759 0.931731 0.338794
730 1 0.428059 0.920785 0.334588
731 3 0.420163 0.930501 0.323076
732 4 0.424709 0.924153 0.344845
733 1 0.402696 0.921174 0.319238
734 3 0.395039 0.930371 0.331046
735 4 0.395119 0.913531 0.316951
736 1 0.385707 0.942224 0.317615
737 3 0.372228 0.931537 0.320862
738 4 0.384112 0.948377 0.308833
739 1 0.362179 0.941253 0.335326
740 3 0.357952 0.955114 0.341229
741 4 0.367363 0.935877 0.344107
742 1 0.336178 0.951422 0.343001
743 3 0.333387 0.941836 0.356505
744 4 0.325411 0.951033 0.337244
745 1 0.334742 0.953753 0.372076
746 3 0.323337 0.96593 0.373109
747 4 0.345111 0.955049 0.377979
748 1 0.313128 0.962109 0.390451
749 3 0.318791 0.965866 0.406686
750 4 0.302042 0.96036 0.386097
751 1 0.30579 0.954013 0.415468
752 3 0.322859 0.945268 0.415984
753 4 0.296778 0.947535 0.417903
754 1 0.327405 0.950904 0.436278
755 3 0.329239 0.946305 0.453324
756 4 0.333466 0.959712 0.438418
757 1 0.314324 0.932897 0.450889
758 3 0.321343 0.924995 0.46432
759 4 0.305551 0.926679 0.447421
760 1 0.339608 0.919231 0.454505
761 3 0.348221 0.92208 0.470076
762 4 0.346626 0.915603 0.446166
763 1 0.35181 0.938986 0.467272
764 3 0.349418 0.941058 0.484835
765 4 0.355639 0.947989 0.463361
766 1 0.328521 0.941058 0.484392
767 3 0.328601 0.93199 0.499225
768 4 0.317036 0.943584 0.481293
769 1 0.330755 0.916445 0.491034
770 3 0.343117 0.913919 0.504981
771 4 0.329319 0.908608 0.483876
772 1 0.360345 0.920461 0.494576
773 3 0.365529 0.924995 0.511401
774 4 0.367044 0.924412 0.486532
775 1 0.35197 0.939892 0.511549
776 3 0.350136 0.937885 0.528669
777 5 0.353485 0.885702 0.484742
778 1 0.33219 0.926809 0.52616
779 3 0.33889 0.920591 0.541879
780 4 0.322141 0.922534 0.522102
781 1 0.353884 0.909385 0.532581
782 3 0.364253 0.91243 0.54638
783 4 0.359068 0.903038 0.52498
784 1 0.37486 0.926679 0.537894
785 3 0.374462 0.931213 0.555236
786 4 0.379247 0.933351 0.530441
787 1 0.353884 0.937561 0.555457
788 3 0.353884 0.93361 0.572947
789 4 0.343037 0.941253 0.55162
790 1 0.349019 0.916381 0.568445
791 3 0.358271 0.913531 0.583426
792 4 0.344313 0.908155 0.563132
793 1 0.379566 0.914761 0.574792
794 3 0.382916 0.920267 0.590879
795 4 0.38818 0.914826 0.566231
796 1 0.37821 0.93769 0.586746
797 3 0.375339 0.939763 0.603867
798 4 0.37486 0.94624 0.581359
799 1 0.354921 0.931537 0.604088
800 3 0.360265 0.92778 0.620618
801 4 0.344313 0.92791 0.601948
802 1 0.371192 0.912883 0.615379
803 3 0.386346 0.912235 0.62571
804 4 0.372308 0.903815 0.609918
805 1 0.398628 0.923441 0.613755
806 3 0.405168 0.929076 0.629031
807 4 0.402776 0.927586 0.604014
808 1 0.390413 0.942742 0.629769
809 3 0.395199 0.944556 0.647111
810 4 0.381879 0.949867 0.627112
811 1 0.382996 0.932055 0.655671
812 3 0.395677 0.928752 0.668364
813 4 0.373186 0.926355 0.656704
814 1 0.409395 0.918712 0.655745
815 3 0.423672 0.925772 0.664822
816 4 0.413224 0.9123 0.647406
817 1 0.426623 0.939115 0.650948
818 3 0.431329 0.947471 0.665707
819 4 0.424709 0.944491 0.641281
820 1 0.409794 0.953171 0.668954
821 3 0.417929 0.954077 0.684894
822 4 0.398628 0.956733 0.6677
823 1 0.413224 0.936719 0.690576
824 3 0.428378 0.938014 0.701129
825 4 0.408279 0.927197 0.69065
826 1 0.443452 0.935618 0.685411
827 3 0.452305 0.945592 0.695816
828 4 0.450391 0.931472 0.677588
829 1 0.44752 0.96049 0.683418
830 3 0.451109 0.968327 0.698325
831 4 0.444728 0.96606 0.67412
832 1 0.431807 0.966449 0.706664
833 3 0.442096 0.970141 0.721349
834 4 0.419365 0.963987 0.707771
835 1 0.450311 0.952458 0.722751
836 3 0.46706 0.958417 0.728064
837 4 0.451188 0.942613 0.721201
838 1 0.474876 0.960878 0.708582
839 3 0.485564 0.973638 0.713674
840 4 0.477269 0.959324 0.697956
841 1 0.469054 0.984714 0.713527
842 3 0.473201 0.993912 0.727179
843 4 0.460839 0.990414 0.708287
844 1 0.462514 0.981799 0.741126
845 3 0.47376 0.971177 0.747841
846 4 0.452225 0.977071 0.745111
847 1 0.489073 0.982382 0.755295
848 3 0.492662 0.971047 0.767028
849 4 0.495294 0.991126 0.757287
850 1 0.475594 0.977071 0.778762
851 3 0.462195 0.967614 0.786584
852 4 0.471048 0.984714 0.784444
853 1 0.45733 0.959518 0.768061
854 3 0.442575 0.970205 0.768283
855 4 0.457888 0.951681 0.774555
856 1 0.430372 0.962627 0.754778
857 3 0.42112 0.953365 0.765626
858 4 0.427819 0.96049 0.743488
859 1 0.403095 0.964441 0.767914
860 3 0.396235 0.95343 0.75714
861 4 0.395438 0.972278 0.767471
862 1 0.389297 0.942613 0.772046
863 3 0.375339 0.937496 0.76201
864 4 0.388658 0.937107 0.781418
865 1 0.361302 0.950515 0.765183
866 3 0.357553 0.949025 0.747768
867 4 0.353645 0.956927 0.770939
868 1 0.373744 0.959777 0.741347
869 3 0.372069 0.949414 0.727474
870 4 0.381959 0.966708 0.740241
871 1 0.387701 0.938403 0.734485
872 3 0.376137 0.92791 0.726367
873 4 0.397591 0.934581 0.738986
874 1 0.362338 0.926161 0.742159
875 3 0.351332 0.92085 0.729171
876 5 0.372149 0.859059 0.703158
877 1 0.344473 0.937366 0.72371
878 3 0.345589 0.930112 0.707844
879 4 0.340644 0.946758 0.723194
880 1 0.366725 0.934905 0.703417
881 3 0.366007 0.921303 0.693233
882 4 0.378529 0.938856 0.703564
883 1 0.370474 0.910681 0.709394
884 3 0.360345 0.899994 0.701793
885 4 0.374063 0.907831 0.719578
886 1 0.340963 0.906212 0.709468
887 3 0.333067 0.902325 0.694045
888 4 0.33227 0.909968 0.716626
889 1 0.33889 0.917935 0.684525
890 3 0.341283 0.909191 0.66984
891 4 0.340246 0.92791 0.681942
892 1 0.362737 0.905434 0.674415
893 3 0.358032 0.892674 0.666003
894 4 0.373903 0.906535 0.679138
895 1 0.353964 0.883866 0.683197
896 3 0.344313 0.874344 0.671906
897 4 0.353645 0.87972 0.693602
898 1 0.325969 0.884837 0.67139
899 3 0.325012 0.881987 0.653457
900 4 0.316478 0.890084 0.674858
901 1 0.338252 0.894294 0.647554
902 3 0.344951 0.884513 0.634418
903 4 0.34208 0.903491 0.645192
904 1 0.357633 0.874603 0.64903
905 3 0.35205 0.862167 0.640027
906 5 0.351651 0.814034 0.611543
907 1 0.333626 0.859835 0.650137
908 3 0.324693 0.856079 0.635008
909 4 0.325889 0.860095 0.658697
910 1 0.320625 0.872725 0.628662
911 3 0.32581 0.866442 0.613017
912 4 0.318312 0.882894 0.628146
913 1 0.347264 0.870264 0.613829
914 3 0.347264 0.857633 0.603055
915 4 0.357553 0.874215 0.618257
916 1 0.345988 0.845974 0.618921
917 3 0.337534 0.836712 0.60704
918 4 0.344872 0.841376 0.629179