ITEM: TIMESTEP
0
ITEM: NUMBER OF ATOMS
8634
ITEM: BOX BOUNDS ss ss ss
27.66 179.62
2.48 166.94
-7.36 121.04
ITEM: ATOMS id type xs ys zs
1 1 0.385759 0.850663 0.868224
2 3 0.389379 0.861851 0.880607
3 4 0.393788 0.845677 0.863396
4 1 0.390037 0.874194 0.86729
5 3 0.374375 0.876262 0.868614
6 4 0.392735 0.879849 0.858255
7 1 0.375428 0.886903 0.886137
8 3 0.367399 0.899368 0.888551
9 4 0.377007 0.884835 0.897664
10 1 0.376152 0.906664 0.871807
11 3 0.368781 0.902165 0.856542
12 4 0.383719 0.91086 0.865888
13 1 0.353975 0.911285 0.858801
14 3 0.352724 0.911164 0.840187
15 4 0.34621 0.91615 0.863006
16 1 0.366281 0.923386 0.838396
17 3 0.370821 0.916636 0.823364
18 4 0.372795 0.930621 0.840654
19 1 0.379574 0.904779 0.831698
20 3 0.37319 0.894321 0.820483
21 4 0.38826 0.901374 0.837072
22 1 0.357923 0.89347 0.831231
23 3 0.3495 0.891828 0.816199
24 4 0.351803 0.89122 0.840421
25 1 0.348579 0.908792 0.812383
26 3 0.351277 0.905327 0.794626
27 4 0.346341 0.917609 0.815109
28 1 0.368913 0.906299 0.79486
29 3 0.369505 0.895719 0.78162
30 4 0.378257 0.909036 0.795717
31 1 0.368123 0.882829 0.796417
32 3 0.3597 0.876079 0.783255
33 4 0.368913 0.878207 0.806854
34 1 0.344301 0.88447 0.786994
35 3 0.342853 0.883741 0.768614
36 4 0.33772 0.890064 0.792679
37 1 0.350684 0.899307 0.765109
38 3 0.354041 0.892132 0.74852
39 4 0.354699 0.908002 0.767056
40 1 0.369505 0.884774 0.756698
41 3 0.365623 0.874073 0.744548
42 4 0.377402 0.882221 0.763318
43 1 0.353251 0.866472 0.757788
44 3 0.347657 0.861912 0.741589
45 4 0.346868 0.865134 0.766667
46 1 0.336668 0.87541 0.738629
47 3 0.338049 0.875167 0.720249
48 4 0.329297 0.881795 0.741121
49 1 0.354633 0.882525 0.721106
50 3 0.35891 0.872978 0.707555
51 4 0.362069 0.88824 0.723131
52 1 0.363714 0.860817 0.721106
53 3 0.357989 0.852 0.706776
54 4 0.368057 0.856561 0.730997
55 1 0.340682 0.851818 0.713863
56 3 0.337457 0.850663 0.696106
57 4 0.332522 0.852305 0.720872
58 1 0.338115 0.86781 0.691667
59 3 0.34417 0.863432 0.675935
60 4 0.338642 0.876809 0.695093
61 1 0.361016 0.861547 0.683411
62 3 0.361213 0.852244 0.669938
63 4 0.369505 0.862337 0.688863
64 1 0.355752 0.838502 0.683489
65 3 0.348184 0.834002 0.667679
66 4 0.354435 0.833333 0.693847
67 1 0.332917 0.842454 0.66986
68 3 0.333114 0.841481 0.651324
69 4 0.325349 0.84671 0.675234
70 1 0.34542 0.854554 0.649221
71 3 0.350619 0.845677 0.635125
72 5 0.340879 0.806185 0.605837
73 1 0.363188 0.83686 0.64595
74 3 0.359239 0.826706 0.632788
75 4 0.369044 0.833881 0.654439
76 1 0.343709 0.820686 0.644003
77 3 0.338313 0.81874 0.62609
78 4 0.336799 0.819166 0.652103
79 1 0.334101 0.83534 0.622508
80 3 0.338444 0.832239 0.604751
81 4 0.330613 0.844582 0.624766
82 1 0.356739 0.835522 0.608178
83 3 0.357002 0.826158 0.594159
84 4 0.366017 0.837346 0.611682
85 1 0.357397 0.812356 0.607632
86 3 0.35233 0.804998 0.592679
87 4 0.358318 0.807491 0.617368
88 1 0.333838 0.808221 0.595483
89 3 0.327849 0.808464 0.578505
90 4 0.325744 0.808646 0.602259
91 1 0.331929 0.82555 0.575935
92 3 0.33726 0.830415 0.560514
93 4 0.330087 0.833637 0.581153
94 1 0.354106 0.822267 0.563396
95 3 0.34871 0.818132 0.546729
96 4 0.360819 0.816308 0.567368
97 1 0.358844 0.82932 0.535826
98 3 0.36661 0.81643 0.531308
99 4 0.364504 0.837042 0.533489
100 1 0.359503 0.815335 0.510202
101 3 0.370229 0.811991 0.497508
102 4 0.351474 0.815153 0.503037
103 1 0.380824 0.825429 0.501713
104 3 0.389116 0.814423 0.51028
105 4 0.384772 0.832847 0.506854
106 1 0.397802 0.809194 0.492368
107 3 0.40741 0.801715 0.504128
108 4 0.402014 0.808646 0.481698
109 1 0.415833 0.817098 0.510592
110 3 0.419913 0.813268 0.528115
111 4 0.418597 0.825733 0.509424
112 1 0.403461 0.810106 0.535125
113 3 0.408068 0.797823 0.542679
114 4 0.393525 0.811565 0.537461
115 1 0.405633 0.788216 0.524611
116 3 0.418334 0.779642 0.523053
117 4 0.399052 0.784811 0.516277
118 1 0.4286 0.790101 0.512461
119 3 0.441893 0.787608 0.521651
120 4 0.432022 0.796789 0.504517
121 1 0.435509 0.795452 0.540966
122 3 0.446236 0.804816 0.548442
123 4 0.440576 0.787669 0.545249
124 1 0.445841 0.815821 0.531231
125 3 0.444196 0.830293 0.5331
126 4 0.447289 0.81649 0.519548
127 1 0.428073 0.829746 0.543536
128 3 0.415965 0.829867 0.55553
129 4 0.422743 0.834124 0.534891
130 1 0.42169 0.816551 0.565888
131 3 0.420505 0.81649 0.584424
132 4 0.423072 0.807126 0.56433
133 1 0.434325 0.827678 0.588396
134 3 0.425836 0.828226 0.603972
135 4 0.441893 0.833516 0.586916
136 1 0.414188 0.839657 0.597741
137 3 0.402737 0.834914 0.608022
138 4 0.410371 0.847501 0.59229
139 1 0.398592 0.821659 0.595794
140 3 0.39767 0.814423 0.611994
141 4 0.39767 0.816369 0.58567
142 1 0.415504 0.809011 0.611293
143 3 0.415636 0.809498 0.630452
144 4 0.424849 0.807613 0.607087
145 1 0.417478 0.826888 0.630919
146 3 0.408331 0.827678 0.646106
147 4 0.419979 0.835644 0.626947
148 1 0.392538 0.827374 0.633645
149 3 0.385825 0.819956 0.647664
150 4 0.386812 0.829624 0.624143
151 1 0.392274 0.804633 0.639875
152 3 0.394051 0.804147 0.658645
153 4 0.395762 0.797702 0.633567
154 1 0.411095 0.806518 0.658801
155 3 0.408989 0.810106 0.677025
156 4 0.420703 0.808038 0.656464
157 1 0.403264 0.825429 0.672664
158 3 0.394775 0.823179 0.687773
159 4 0.403396 0.83382 0.666978
160 1 0.380692 0.815943 0.676636
161 3 0.380034 0.809072 0.693536
162 4 0.374638 0.811991 0.668224
163 1 0.391221 0.795573 0.687539
164 3 0.395301 0.795695 0.706153
165 4 0.397341 0.789554 0.681308
166 1 0.406225 0.809376 0.705374
167 3 0.401553 0.812477 0.722508
168 4 0.413991 0.814849 0.70148
169 1 0.386023 0.821659 0.713785
170 3 0.378718 0.817342 0.729751
171 5 0.393459 0.776039 0.672667
172 1 0.375757 0.801958 0.723287
173 3 0.376415 0.796668 0.739953
174 4 0.373256 0.793932 0.717212
175 1 0.393985 0.798492 0.74229
176 3 0.393656 0.806275 0.757944
177 4 0.403067 0.795817 0.73972
178 1 0.396881 0.821355 0.749221
179 3 0.388984 0.82707 0.764797
180 4 0.399184 0.828226 0.741277
181 1 0.372598 0.824699 0.755763
182 3 0.367399 0.823665 0.774065
183 4 0.365359 0.826037 0.747664
184 1 0.371479 0.80816 0.777025
185 3 0.376875 0.811139 0.794237
186 4 0.373256 0.799161 0.773988
187 1 0.394051 0.81418 0.789875
188 3 0.392867 0.824456 0.802726
189 4 0.402803 0.813997 0.784969
190 1 0.38497 0.835583 0.790654
191 3 0.376678 0.837955 0.80662
192 4 0.382601 0.84136 0.781075
193 1 0.362793 0.828773 0.802025
194 3 0.361016 0.825064 0.821106
195 4 0.355225 0.825125 0.795794
196 1 0.372861 0.812781 0.820483
197 3 0.375888 0.817524 0.83824
198 4 0.379574 0.806397 0.816745
199 1 0.386154 0.830415 0.830919
200 3 0.380692 0.83838 0.845016
201 4 0.39313 0.835522 0.825701
202 1 0.364372 0.841907 0.836293
203 3 0.358976 0.840752 0.853816
204 4 0.357462 0.843913 0.828349
205 1 0.356015 0.824213 0.852648
206 3 0.358186 0.823909 0.871651
207 4 0.354567 0.815517 0.848053
208 1 0.375888 0.821537 0.871028
209 3 0.376941 0.836009 0.872586
210 4 0.38543 0.818497 0.868769
211 1 0.379639 0.835401 0.89486
212 3 0.392274 0.840508 0.903583
213 5 0.377994 0.788138 0.84535
214 1 0.399513 0.825125 0.906308
215 3 0.40254 0.821172 0.889486
216 4 0.399513 0.81722 0.913084
217 1 0.421229 0.824517 0.88972
218 3 0.419913 0.809923 0.890654
219 4 0.430574 0.825611 0.894081
220 1 0.425243 0.808099 0.870249
221 3 0.415241 0.797276 0.868146
222 4 0.43314 0.80968 0.86324
223 1 0.40662 0.802809 0.851869
224 3 0.403922 0.789067 0.846028
225 4 0.40254 0.808464 0.843458
226 1 0.417807 0.789919 0.831153
227 3 0.43268 0.792168 0.833956
228 4 0.416886 0.793506 0.820016
229 1 0.438142 0.775933 0.837461
230 3 0.443604 0.779946 0.821262
231 4 0.437418 0.767421 0.841121
232 1 0.46124 0.781892 0.828193
233 3 0.463938 0.782135 0.810203
234 4 0.469926 0.781406 0.833956
235 1 0.463543 0.765232 0.806464
236 3 0.458805 0.768515 0.789097
237 4 0.46124 0.755928 0.808645
238 1 0.441498 0.771434 0.794548
239 3 0.440247 0.782987 0.782944
240 4 0.432153 0.769366 0.798287
241 1 0.446762 0.79454 0.795405
242 3 0.454067 0.797945 0.780218
243 4 0.449066 0.799891 0.805296
244 1 0.468215 0.787608 0.781776
245 3 0.468084 0.78931 0.762928
246 4 0.475191 0.782196 0.786371
247 1 0.456173 0.776785 0.758801
248 3 0.451566 0.786453 0.746028
249 4 0.450974 0.769306 0.76067
250 1 0.439655 0.794479 0.758178
251 3 0.443209 0.805241 0.746262
252 4 0.43268 0.797215 0.7669
253 1 0.456962 0.810775 0.758956
254 3 0.461832 0.813937 0.741511
255 4 0.463346 0.812599 0.768224
256 1 0.470716 0.798857 0.738396
257 3 0.469466 0.804025 0.720717
258 4 0.475191 0.790587 0.740265
259 1 0.452487 0.79831 0.717212
260 3 0.453738 0.810167 0.706464
261 4 0.444064 0.793263 0.716667
262 1 0.448802 0.821112 0.722118
263 3 0.457094 0.830354 0.711838
264 4 0.445841 0.824577 0.733333
265 1 0.473217 0.82701 0.720872
266 3 0.482298 0.826827 0.705919
267 4 0.479337 0.826402 0.730218
268 1 0.477428 0.812052 0.698053
269 3 0.475915 0.818132 0.681231
270 4 0.475717 0.802688 0.697274
271 1 0.459068 0.8233 0.684112
272 3 0.461437 0.836617 0.675701
273 4 0.449197 0.824091 0.688941
274 1 0.468018 0.843913 0.694237
275 3 0.477823 0.850663 0.682321
276 4 0.470321 0.845798 0.705763
277 1 0.49059 0.838076 0.683645
278 3 0.492235 0.842697 0.666667
279 4 0.496841 0.831205 0.687227
280 1 0.480324 0.831874 0.657243
281 3 0.480324 0.841785 0.644003
282 4 0.473085 0.824881 0.657009
283 1 0.467689 0.85194 0.653816
284 3 0.475717 0.862763 0.645016
285 4 0.460977 0.856135 0.66176
286 1 0.488944 0.863553 0.659891
287 3 0.498355 0.866898 0.645171
288 4 0.493156 0.863675 0.670639
289 1 0.502895 0.850359 0.641121
290 3 0.503093 0.852 0.622819
291 4 0.50612 0.841724 0.644315
292 1 0.485523 0.850845 0.61986
293 3 0.487694 0.861668 0.607399
294 4 0.476244 0.847744 0.619548
295 1 0.485325 0.873708 0.62243
296 3 0.495591 0.880275 0.61067
297 4 0.483088 0.87839 0.632944
298 1 0.510661 0.874194 0.619704
299 3 0.516715 0.87383 0.602804
300 4 0.51757 0.869999 0.627181
301 1 0.510595 0.858811 0.597508
302 3 0.510332 0.864101 0.579361
303 4 0.507239 0.850176 0.599065
304 1 0.492959 0.869938 0.581075
305 3 0.495525 0.880883 0.568692
306 4 0.482824 0.870303 0.584034
307 1 0.505133 0.890368 0.583801
308 3 0.511779 0.891281 0.567056
309 4 0.508555 0.892861 0.594938
310 1 0.52573 0.880153 0.571729
311 3 0.52573 0.878755 0.552726
312 4 0.532706 0.874742 0.577259
313 1 0.513819 0.867384 0.551791
314 3 0.511187 0.872492 0.535358
315 4 0.507568 0.859905 0.554128
316 1 0.502698 0.886477 0.541822
317 3 0.511648 0.894686 0.529439
318 4 0.495394 0.891463 0.546885
319 1 0.525401 0.898334 0.541978
320 3 0.532574 0.897604 0.525156
321 4 0.530534 0.899915 0.552181
322 1 0.539023 0.882342 0.52609
323 3 0.538563 0.880883 0.507632
324 4 0.543103 0.87462 0.530607
325 1 0.520137 0.880214 0.506776
326 3 0.520927 0.886477 0.48933
327 4 0.510332 0.879788 0.510202
328 1 0.520005 0.902225 0.49595
329 3 0.528099 0.914873 0.492601
330 4 0.510792 0.905874 0.496184
331 1 0.537378 0.914508 0.511682
332 3 0.551329 0.916819 0.519315
333 4 0.532311 0.919129 0.520639
334 1 0.558634 0.901739 0.514953
335 3 0.569821 0.911225 0.510514
336 4 0.560082 0.892375 0.51729
337 1 0.562253 0.897665 0.491044
338 3 0.549092 0.905691 0.489564
339 4 0.567978 0.896875 0.480997
340 1 0.539747 0.892375 0.479984
341 3 0.543432 0.883193 0.465498
342 4 0.536786 0.89955 0.472975
343 1 0.536983 0.869087 0.475
344 3 0.522243 0.86781 0.468069
345 4 0.537905 0.862216 0.483411
346 1 0.526586 0.860392 0.449766
347 3 0.533364 0.847197 0.450389
348 4 0.529416 0.86252 0.438551
349 1 0.517439 0.838563 0.449143
350 3 0.505265 0.838867 0.437617
351 4 0.513359 0.835462 0.459268
352 1 0.509674 0.824577 0.427414
353 3 0.514148 0.811869 0.435748
354 4 0.51507 0.825003 0.4169
355 1 0.498223 0.804633 0.432009
356 3 0.502435 0.800985 0.449533
357 4 0.503488 0.797154 0.42796
358 1 0.486707 0.807917 0.457944
359 3 0.480192 0.794844 0.454206
360 4 0.479402 0.814058 0.461449
361 1 0.482101 0.788824 0.476012
362 3 0.482693 0.796242 0.492991
363 4 0.489405 0.782622 0.477492
364 1 0.465846 0.79229 0.49852
365 3 0.469334 0.792533 0.5169
366 4 0.455909 0.791317 0.496963
367 1 0.478679 0.778305 0.517523
368 3 0.488681 0.784081 0.530607
369 4 0.48085 0.769549 0.516199
370 1 0.499605 0.79156 0.515265
371 3 0.50125 0.802809 0.526558
372 4 0.504936 0.794905 0.505452
373 1 0.486312 0.810592 0.521028
374 3 0.482824 0.814484 0.538863
375 4 0.479732 0.815274 0.514564
376 1 0.474072 0.800803 0.542835
377 3 0.478547 0.800195 0.560903
378 4 0.466965 0.793992 0.541121
379 1 0.495262 0.792959 0.555062
380 3 0.50125 0.797884 0.571417
381 4 0.503093 0.791013 0.547352
382 1 0.500987 0.813754 0.567212
383 3 0.501185 0.814362 0.58567
384 4 0.497236 0.821659 0.562305
385 1 0.482956 0.812234 0.588006
386 3 0.486707 0.807248 0.604673
387 4 0.473217 0.810957 0.585202
388 1 0.491577 0.791317 0.596885
389 3 0.502698 0.79229 0.610047
390 4 0.492037 0.783899 0.590109
391 1 0.514938 0.800985 0.597975
392 3 0.520071 0.806762 0.613785
393 4 0.519874 0.80439 0.588474
394 1 0.505988 0.817524 0.616433
395 3 0.504936 0.813693 0.635047
396 4 0.498618 0.823544 0.61324
397 1 0.492432 0.802323 0.632632
398 3 0.499737 0.795026 0.647274
399 4 0.484864 0.797094 0.627492
400 1 0.51224 0.78779 0.635903
401 3 0.521058 0.790405 0.651168
402 4 0.516978 0.783899 0.626869
403 1 0.526981 0.805363 0.644548
404 3 0.527441 0.808829 0.662617
405 4 0.529679 0.812416 0.637773
406 1 0.508686 0.811383 0.663707
407 3 0.508292 0.807674 0.681308
408 4 0.499342 0.813632 0.660826
409 1 0.509739 0.790831 0.676713
410 3 0.519808 0.791195 0.69081
411 4 0.507765 0.782439 0.67204
412 1 0.535141 0.793384 0.678583
413 3 0.541524 0.799951 0.693847
414 5 0.525862 0.738021 0.638201
415 1 0.532903 0.814605 0.689953
416 3 0.53139 0.816126 0.708567
417 4 0.529481 0.822024 0.683879
418 1 0.515333 0.80889 0.709969
419 3 0.516254 0.802627 0.726402
420 4 0.505265 0.808038 0.707944
421 1 0.523954 0.788581 0.718614
422 3 0.528626 0.785297 0.736215
423 4 0.526323 0.781345 0.711526
424 1 0.540405 0.796911 0.738162
425 3 0.537773 0.79837 0.755452
426 4 0.547315 0.803113 0.734502
427 1 0.522177 0.808342 0.752103
428 3 0.51915 0.803235 0.768925
429 4 0.515794 0.813997 0.746573
430 1 0.511385 0.788824 0.764875
431 3 0.518952 0.781831 0.779206
432 4 0.505528 0.783169 0.758645
433 1 0.533101 0.77794 0.767212
434 3 0.540076 0.778852 0.783801
435 4 0.539616 0.775386 0.758567
436 1 0.542577 0.79533 0.782399
437 3 0.54159 0.795148 0.800156
438 4 0.543762 0.803843 0.777414
439 1 0.522769 0.795269 0.801558
440 3 0.524349 0.786331 0.816511
441 5 0.528297 0.747525 0.759653
442 1 0.526191 0.771677 0.804517
443 3 0.535338 0.766995 0.818692
444 4 0.526059 0.765596 0.795093
445 1 0.550342 0.774292 0.81067
446 3 0.556067 0.778791 0.827882
447 4 0.558042 0.77569 0.802882
448 1 0.549882 0.793871 0.827336
449 3 0.534614 0.798735 0.827336
450 4 0.553698 0.802201 0.823287
451 1 0.530929 0.792047 0.846963
452 3 0.517373 0.798553 0.844782
453 4 0.531061 0.788581 0.858255
454 1 0.522637 0.814058 0.851012
455 3 0.513095 0.822267 0.840576
456 4 0.527507 0.821172 0.857632
457 1 0.523888 0.819774 0.822274
458 3 0.513622 0.810349 0.814097
459 4 0.533167 0.819956 0.8169
460 1 0.505594 0.823483 0.802414
461 3 0.490524 0.826158 0.808645
462 4 0.507699 0.817767 0.793069
463 1 0.486641 0.81041 0.814564
464 3 0.479073 0.810106 0.830997
465 4 0.486049 0.801167 0.812072
466 1 0.492432 0.816977 0.843769
467 3 0.495196 0.803417 0.849688
468 4 0.486049 0.824456 0.845639
469 1 0.481574 0.801046 0.861838
470 3 0.471374 0.790648 0.857087
471 4 0.480587 0.802019 0.873598
472 1 0.458871 0.801776 0.849299
473 3 0.447486 0.810835 0.843925
474 5 0.46736 0.743939 0.79902
475 1 0.458673 0.82099 0.831854
476 3 0.46045 0.818132 0.813551
477 4 0.465846 0.827739 0.831932
478 1 0.443143 0.82403 0.809735
479 3 0.439458 0.835401 0.799922
480 4 0.433798 0.820443 0.810514
481 1 0.446762 0.84671 0.814564
482 3 0.454791 0.857899 0.80771
483 4 0.44742 0.849994 0.825857
484 1 0.464596 0.848899 0.794237
485 3 0.476902 0.857899 0.797274
486 4 0.466241 0.843184 0.785436
487 1 0.487168 0.847014 0.808723
488 3 0.483943 0.859905 0.816121
489 4 0.492366 0.844521 0.798598
490 1 0.501711 0.863128 0.820249
491 3 0.499737 0.871032 0.804595
492 4 0.511253 0.861364 0.82391
493 1 0.497565 0.886112 0.814798
494 3 0.503883 0.892253 0.799533
495 4 0.493551 0.891889 0.823131
496 1 0.522045 0.889821 0.807009
497 3 0.527836 0.887207 0.790343
498 4 0.530337 0.891098 0.814174
499 1 0.521914 0.870485 0.790421
500 3 0.520795 0.872796 0.771495
501 4 0.518952 0.861851 0.794704
502 1 0.502698 0.878268 0.774533
503 3 0.504936 0.887146 0.760436
504 4 0.493683 0.878086 0.778894
505 1 0.512306 0.899185 0.77352
506 3 0.5204 0.903077 0.757944
507 4 0.514543 0.903624 0.783567
508 1 0.534549 0.893166 0.761215
509 3 0.535404 0.89274 0.742601
510 4 0.541919 0.888423 0.766355
511 1 0.521058 0.8807 0.741355
512 3 0.516123 0.887328 0.725935
513 5 0.525928 0.816706 0.692982
514 1 0.506581 0.899003 0.737305
515 3 0.509542 0.908124 0.723832
516 4 0.500855 0.903624 0.74595
517 1 0.526257 0.912258 0.731698
518 3 0.530403 0.912745 0.712773
519 4 0.533759 0.914934 0.739174
520 1 0.535601 0.896996 0.711994
521 3 0.530271 0.898456 0.694626
522 4 0.539945 0.888909 0.713941
523 1 0.512964 0.895719 0.699221
524 3 0.507699 0.905448 0.686526
525 4 0.50408 0.892497 0.703972
526 1 0.510792 0.918764 0.699766
527 3 0.511977 0.925757 0.683489
528 4 0.512898 0.924176 0.709268
529 1 0.530271 0.924115 0.681231
530 3 0.524546 0.922352 0.664408
531 4 0.539813 0.925271 0.68567
532 1 0.534812 0.909887 0.658567
533 3 0.52244 0.908124 0.647196
534 4 0.542774 0.904171 0.656386
535 1 0.512898 0.897543 0.657555
536 3 0.500066 0.902469 0.649455
537 4 0.51099 0.890247 0.664875
538 1 0.495065 0.912684 0.666199
539 3 0.490195 0.926122 0.661994
540 4 0.490853 0.912988 0.676791
541 1 0.506252 0.931838 0.654517
542 3 0.507173 0.932932 0.635358
543 4 0.511911 0.937979 0.660981
544 1 0.524349 0.927885 0.633255
545 3 0.520334 0.923872 0.616044
546 4 0.534022 0.926973 0.635202
547 1 0.514148 0.909461 0.621495
548 3 0.505396 0.912441 0.60662
549 4 0.513161 0.900523 0.62648
550 1 0.491248 0.91919 0.619315
551 3 0.488418 0.926973 0.603583
552 4 0.485588 0.922534 0.62796
553 1 0.500526 0.938648 0.607632
554 3 0.50204 0.939925 0.588941
555 4 0.505199 0.945275 0.614019
556 1 0.514346 0.925939 0.587617
557 3 0.507107 0.923386 0.571184
558 4 0.521716 0.919859 0.589564
559 1 0.492498 0.914995 0.58014
560 3 0.484404 0.920528 0.565421
561 4 0.488221 0.909887 0.588629
562 1 0.480784 0.935303 0.57609
563 3 0.482627 0.940289 0.558489
564 4 0.478679 0.942174 0.584813
565 1 0.50079 0.943451 0.559891
566 3 0.500921 0.942478 0.541511
567 4 0.5102 0.944667 0.564019
568 1 0.499145 0.924602 0.541978
569 3 0.489076 0.924115 0.526947
570 4 0.500855 0.915603 0.544704
571 1 0.474138 0.927277 0.539019
572 3 0.469071 0.935182 0.524533
573 4 0.467623 0.926791 0.54743
574 1 0.477428 0.949957 0.53053
575 3 0.479337 0.95616 0.513785
576 4 0.483285 0.955734 0.537617
577 1 0.493222 0.944485 0.507555
578 3 0.487168 0.932567 0.499455
579 4 0.502303 0.940229 0.509891
580 1 0.483153 0.94108 0.480997
581 3 0.484996 0.93883 0.462928
582 4 0.474664 0.945701 0.479984
583 1 0.503225 0.944242 0.463785
584 3 0.513359 0.934027 0.456776
585 4 0.511911 0.948316 0.467445
586 1 0.499803 0.925879 0.445016
587 3 0.505462 0.923021 0.427336
588 4 0.491248 0.920406 0.445561
589 1 0.503159 0.937857 0.419704
590 3 0.513885 0.932385 0.407009
591 4 0.500197 0.946796 0.417056
592 1 0.528231 0.937614 0.421807
593 3 0.539089 0.926973 0.426713
594 4 0.531982 0.943026 0.430374
595 1 0.529218 0.913596 0.422897
596 3 0.540603 0.91463 0.409735
597 4 0.522309 0.908063 0.417913
598 1 0.551461 0.902408 0.418069
599 3 0.557449 0.890733 0.408723
600 4 0.557844 0.903746 0.428193
601 1 0.540669 0.88441 0.403271
602 3 0.541195 0.891585 0.38715
603 4 0.531258 0.88143 0.403271
604 1 0.549026 0.879059 0.375701
605 3 0.534812 0.879302 0.369393
606 4 0.552843 0.870728 0.372352
607 1 0.539879 0.888848 0.352025
608 3 0.551724 0.894807 0.342913
609 4 0.535272 0.897239 0.35514
610 1 0.547644 0.886842 0.323442
611 3 0.541787 0.900827 0.321885
612 4 0.543762 0.8807 0.315732
613 1 0.556002 0.906603 0.310125
614 3 0.552448 0.915116 0.325234
615 4 0.548434 0.910434 0.303193
616 1 0.569426 0.921622 0.326402
617 3 0.568373 0.9139 0.342757
618 5 0.566333 0.869004 0.308358
619 1 0.563438 0.928068 0.353972
620 3 0.550013 0.920041 0.35257
621 4 0.561727 0.936884 0.357243
622 1 0.550934 0.913049 0.372741
623 3 0.535536 0.911103 0.372508
624 4 0.554883 0.909887 0.383801
625 1 0.532706 0.926791 0.381698
626 3 0.531653 0.9381 0.369159
627 4 0.533496 0.932202 0.391822
628 1 0.516518 0.931169 0.35919
629 3 0.501908 0.933601 0.365421
630 4 0.513951 0.92369 0.352181
631 1 0.502303 0.950383 0.365421
632 3 0.494012 0.949471 0.348676
633 4 0.506186 0.959017 0.367056
634 1 0.477757 0.949532 0.358956
635 3 0.471177 0.954579 0.342991
636 4 0.470979 0.949593 0.367523
637 1 0.471901 0.97051 0.347586
638 3 0.472493 0.978475 0.331698
639 4 0.469532 0.977867 0.355841
640 1 0.487957 0.972638 0.325234
641 3 0.492564 0.958653 0.323209
642 4 0.496644 0.977624 0.32609
643 1 0.487892 0.958166 0.302025
644 3 0.502895 0.961875 0.298287
645 4 0.481837 0.958409 0.292523
646 1 0.50816 0.946309 0.291433
647 3 0.508226 0.952694 0.274688
648 4 0.50691 0.937553 0.288707
649 1 0.526652 0.957497 0.277882
650 3 0.538365 0.951782 0.287383
651 4 0.528494 0.966192 0.279984
652 1 0.536062 0.948924 0.259579
653 3 0.542774 0.961754 0.261604
654 4 0.541393 0.942296 0.254751
655 1 0.539352 0.966861 0.241355
656 3 0.534746 0.98036 0.241199
657 4 0.542116 0.964733 0.229829
658 1 0.515728 0.975252 0.238318
659 3 0.517834 0.977563 0.219782
660 4 0.514675 0.984008 0.242913
661 1 0.501119 0.973671 0.214798
662 3 0.502501 0.970449 0.196495
663 4 0.499803 0.982975 0.21176
664 1 0.511977 0.956038 0.199299
665 3 0.50079 0.946188 0.202103
666 4 0.520992 0.95318 0.202414
667 1 0.500921 0.941506 0.18053
668 3 0.48651 0.946613 0.184424
669 4 0.502435 0.932446 0.184502
670 1 0.479008 0.940654 0.165966
671 3 0.465386 0.933114 0.169704
672 4 0.478481 0.942296 0.154283
673 1 0.47473 0.920041 0.17648
674 3 0.478021 0.92673 0.192991
675 4 0.479402 0.91238 0.171885
676 1 0.466636 0.917609 0.204984
677 3 0.47348 0.907637 0.216745
678 4 0.457226 0.921379 0.206464
679 1 0.460055 0.895598 0.212695
680 3 0.469926 0.890004 0.199922
681 4 0.450842 0.892132 0.209579
682 1 0.478547 0.879363 0.214174
683 3 0.492564 0.879484 0.206386
684 4 0.476244 0.872553 0.206464
685 1 0.496512 0.895537 0.210748
686 3 0.510924 0.898699 0.217523
687 4 0.495065 0.903989 0.205841
688 1 0.507041 0.895659 0.23824
689 3 0.500724 0.883619 0.245249
690 4 0.50408 0.902408 0.246262
691 1 0.517241 0.876809 0.251012
692 3 0.51632 0.882281 0.267679
693 4 0.527244 0.875228 0.25109
694 1 0.506252 0.863128 0.261215
695 3 0.49184 0.861912 0.269003
696 4 0.509739 0.855406 0.266277
697 1 0.484206 0.861912 0.24852
698 3 0.469992 0.86781 0.252181
699 4 0.481377 0.853642 0.252882
700 1 0.476441 0.883558 0.25662
701 3 0.467755 0.886112 0.241199
702 4 0.482298 0.891281 0.258645
703 1 0.454198 0.893591 0.25148
704 3 0.464596 0.904597 0.249533
705 4 0.44617 0.893409 0.258879
706 1 0.453211 0.915055 0.239252
707 3 0.452619 0.919859 0.257165
708 4 0.444525 0.917792 0.234579
709 1 0.467031 0.931412 0.254284
710 3 0.469729 0.919981 0.265888
711 5 0.462622 0.878395 0.24307
712 1 0.470453 0.929953 0.283178
713 3 0.466307 0.9426 0.291277
714 4 0.480653 0.929831 0.284502
715 1 0.453014 0.933601 0.304751
716 3 0.46374 0.936459 0.317991
717 4 0.447749 0.925879 0.308723
718 1 0.456107 0.952329 0.322274
719 3 0.441629 0.954214 0.330218
720 4 0.457291 0.960902 0.318925
721 1 0.448934 0.949471 0.350467
722 3 0.451303 0.963821 0.349922
723 5 0.45308 0.883346 0.33894
724 1 0.444393 0.965645 0.369626
725 3 0.450711 0.956342 0.382788
726 4 0.434391 0.96826 0.37095
727 1 0.457423 0.969841 0.394003
728 3 0.455975 0.968564 0.412072
729 4 0.462688 0.978171 0.396028
730 1 0.438536 0.962605 0.411682
731 3 0.442024 0.948133 0.410981
732 4 0.4286 0.961936 0.409112
733 1 0.445709 0.947586 0.432555
734 3 0.43314 0.939013 0.431698
735 4 0.445775 0.950261 0.444315
736 1 0.442814 0.924541 0.429517
737 3 0.452619 0.920528 0.441978
738 4 0.446631 0.920406 0.419003
739 1 0.441629 0.90709 0.449143
740 3 0.428402 0.900949 0.445093
741 4 0.440576 0.910434 0.460358
742 1 0.432416 0.885869 0.452804
743 3 0.426625 0.879363 0.467913
744 4 0.435049 0.879059 0.44595
745 1 0.441235 0.882221 0.48014
746 3 0.440182 0.88672 0.497819
747 4 0.451303 0.880944 0.481931
748 1 0.427678 0.89876 0.493224
749 3 0.430903 0.909096 0.507009
750 4 0.422611 0.893409 0.501012
751 1 0.445512 0.914751 0.495639
752 3 0.44334 0.926852 0.50553
753 4 0.452685 0.915785 0.48676
754 1 0.4311 0.933844 0.492679
755 3 0.423533 0.938404 0.5081
756 4 0.425178 0.935668 0.482555
757 1 0.414517 0.924723 0.511526
758 3 0.416886 0.927581 0.529595
759 4 0.408792 0.917062 0.51028
760 1 0.432943 0.92144 0.53162
761 3 0.436431 0.933236 0.542601
762 4 0.44005 0.915359 0.529907
763 1 0.441235 0.943451 0.526636
764 3 0.434983 0.955369 0.53528
765 4 0.446236 0.946735 0.517134
766 1 0.41761 0.951478 0.527959
767 3 0.412411 0.956585 0.544315
768 4 0.410174 0.947404 0.52134
769 1 0.414583 0.943269 0.55662
770 3 0.422282 0.94637 0.572274
771 4 0.411621 0.934817 0.558956
772 1 0.438997 0.947951 0.563629
773 3 0.442748 0.953788 0.580296
774 4 0.446367 0.949897 0.554984
775 1 0.435049 0.968929 0.576869
776 3 0.430311 0.970996 0.594081
777 5 0.435509 0.913894 0.544951
778 1 0.415307 0.960294 0.591978
779 3 0.418136 0.955308 0.609112
780 4 0.407212 0.956707 0.586682
781 1 0.428336 0.941931 0.601947
782 3 0.43722 0.942661 0.616822
783 4 0.430179 0.934331 0.595483
784 1 0.447815 0.955308 0.608411
785 3 0.448013 0.962605 0.625234
786 4 0.453606 0.959261 0.600312
787 1 0.432351 0.96978 0.624143
788 3 0.431232 0.966253 0.642212
789 4 0.42452 0.974523 0.619159
790 1 0.423006 0.951538 0.640343
791 3 0.432153 0.949045 0.655218
792 4 0.417083 0.945093 0.636215
793 1 0.446696 0.946309 0.644393
794 3 0.453606 0.952572 0.659424
795 4 0.453804 0.943999 0.635592
796 1 0.452619 0.968077 0.653349
797 3 0.451961 0.969233 0.671885
798 4 0.453804 0.976286 0.647274
799 1 0.432548 0.969415 0.672741
800 3 0.433996 0.963821 0.689798
801 4 0.422874 0.968929 0.669704
802 1 0.43801 0.949045 0.683879
803 3 0.449131 0.948437 0.69743
804 4 0.437352 0.940411 0.67905
805 1 0.462622 0.953484 0.684346
806 3 0.471703 0.959686 0.697586
807 4 0.468479 0.953363 0.674221
808 1 0.461832 0.974583 0.697586
809 3 0.466504 0.97659 0.715343
810 4 0.456502 0.982184 0.693069
811 1 0.452422 0.968929 0.724766
812 3 0.461635 0.961754 0.736604
813 4 0.442551 0.966314 0.725545
814 1 0.467031 0.949957 0.723988
815 3 0.48164 0.950505 0.730608
816 4 0.465649 0.943208 0.715654
817 1 0.487365 0.962666 0.718458
818 3 0.495986 0.96601 0.733801
819 4 0.487892 0.968199 0.708333
820 1 0.483943 0.976104 0.742212
821 3 0.487892 0.971057 0.759346
822 4 0.477494 0.983583 0.744782
823 1 0.479205 0.956281 0.757321
824 3 0.491643 0.952025 0.767368
825 4 0.473151 0.949289 0.754517
826 1 0.502303 0.947464 0.750078
827 3 0.515991 0.952025 0.758333
828 4 0.504146 0.944911 0.738707
829 1 0.514017 0.968868 0.75366
830 3 0.521782 0.970388 0.768847
831 4 0.511319 0.976347 0.748131
832 1 0.507897 0.969354 0.782165
833 3 0.518097 0.96224 0.792991
834 4 0.499013 0.971239 0.787617
835 1 0.512437 0.946674 0.786215
836 3 0.526915 0.941749 0.790732
837 4 0.507173 0.940958 0.779985
838 1 0.535931 0.948012 0.77352
839 3 0.549355 0.951842 0.781386
840 4 0.537971 0.94941 0.761994
841 1 0.541853 0.966132 0.79081
842 3 0.547578 0.96224 0.808178
843 4 0.537444 0.974401 0.788006
844 1 0.531785 0.960355 0.816978
845 3 0.537247 0.949289 0.827648
846 4 0.522374 0.960963 0.820794
847 1 0.53955 0.938952 0.811137
848 3 0.537247 0.926791 0.820483
849 4 0.549223 0.939621 0.814875
850 1 0.518228 0.928189 0.818302
851 3 0.510003 0.935303 0.805685
852 4 0.516781 0.929284 0.830296
853 1 0.494801 0.924419 0.808956
854 3 0.489339 0.935607 0.820249
855 4 0.488681 0.917305 0.813084
856 1 0.48085 0.94339 0.802103
857 3 0.466044 0.938587 0.802414
858 4 0.481377 0.947039 0.790888
859 1 0.461832 0.948194 0.81986
860 3 0.456502 0.956707 0.80553
861 4 0.460977 0.952633 0.830685
862 1 0.438997 0.949836 0.807009
863 3 0.433996 0.963517 0.802103
864 4 0.431495 0.943512 0.808255
865 1 0.432153 0.969841 0.820717
866 3 0.436694 0.983522 0.816822
867 4 0.429587 0.970753 0.831854
868 1 0.454133 0.979752 0.81067
869 3 0.45512 0.987657 0.794548
870 4 0.463675 0.97659 0.812072
871 1 0.446104 0.97659 0.782399
872 3 0.434917 0.983522 0.773209
873 4 0.449395 0.969172 0.77609
874 1 0.422151 0.98188 0.790966
875 3 0.413596 0.975556 0.776713
876 5 0.430574 0.922276 0.751641
877 1 0.406949 0.990393 0.769003
878 3 0.404909 0.983765 0.75296
879 4 0.404909 0.999757 0.769081
880 1 0.421953 0.984495 0.746495
881 3 0.421624 0.971422 0.738785
882 4 0.431824 0.987657 0.744782
883 1 0.423269 0.962483 0.756854
884 3 0.411753 0.953241 0.751869
885 4 0.427218 0.958957 0.76729
886 1 0.397539 0.962058 0.76067
887 3 0.391156 0.955187 0.745405
888 4 0.392603 0.96905 0.767134
889 1 0.39642 0.967044 0.731231
890 3 0.397934 0.955612 0.718925
891 4 0.39767 0.975556 0.725779
892 1 0.41478 0.951599 0.725078
893 3 0.409121 0.938465 0.718692
894 4 0.423862 0.951964 0.729907
895 1 0.400698 0.934391 0.737539
896 3 0.391156 0.928128 0.725234
897 4 0.398394 0.933783 0.74891
898 1 0.380626 0.94187 0.723832
899 3 0.376612 0.937188 0.707321
900 4 0.375954 0.950261 0.725623
901 1 0.391221 0.943147 0.696495
902 3 0.392274 0.930865 0.68676
903 4 0.397539 0.949593 0.692445
904 1 0.401816 0.922048 0.701713
905 3 0.393919 0.911407 0.694626
906 5 0.399645 0.857788 0.660939
907 1 0.379245 0.912988 0.707555
908 3 0.371084 0.908245 0.692757
909 4 0.373585 0.916028 0.717134
910 1 0.369834 0.923142 0.682944
911 3 0.371808 0.914995 0.667835
912 4 0.368321 0.932263 0.681075
913 1 0.390168 0.914265 0.668224
914 3 0.388721 0.901009 0.660592
915 4 0.399513 0.917427 0.670171
916 1 0.38543 0.893591 0.680296
917 3 0.376481 0.884288 0.671963