LAMMPS protain data file

        8634  atoms
       11502  bonds
           0  angles
           0  dihedrals
           0  impropers

           5  atom types
           5  bond types
           0  angle types
           0  dihedral types
           0  improper types

-200.0	200.0	xlo xhi
-200.0	200.0	ylo yhi
-200.0	200.0	zlo zhi

Masses

           1	27.0
           2	14.0
           3	28.0
           4	60.0
           5	60.0

Atoms

           1	1	1	1	0.0	83.08	150.62	107.5
           2	1	1	3	0.0	83.7	151.02	105.21
           3	1	1	4	0.0	83.98	149.52	108.01
           4	1	2	1	0.0	84.42	153.58	105.51
           5	1	2	3	0.0	85.78	152.92	103.63
           6	1	2	4	0.0	84.66	155.01	105.94
           7	1	3	1	0.0	88.07	152.14	104.98999
           8	1	3	3	0.0	88.46	150.79	103.06
           9	1	3	4	0.0	89.14	151.86	106.04
          10	1	4	1	0.0	86.88	148.66	103.93
          11	1	4	3	0.0	86.33	148.43	101.61001
          12	1	4	4	0.0	86.16	147.64	105.0
          13	1	5	1	0.0	84.51	150.49	101.48001
          14	1	5	3	0.0	85.11	151.22	99.27999
          15	1	5	4	0.0	83.28	151.36	101.79
          16	1	6	1	0.0	87.52	152.43	100.15001
          17	1	6	3	0.0	88.49	151.43	98.19999
          18	1	6	4	0.0	88.39	153.4	100.920006
          19	1	7	1	0.0	89.490005	149.12	99.51
          20	1	7	3	0.0	88.98999	147.86	97.51
          21	1	7	4	0.0	89.89	148.22	100.68
          22	1	8	1	0.0	86.19999	147.45	98.1
          23	1	8	3	0.0	85.83	147.71	95.78001
          24	1	8	4	0.0	84.9	147.13	98.94001
          25	1	9	1	0.0	85.67	150.55	95.86
          26	1	9	3	0.0	86.78	149.96	93.79
          27	1	9	4	0.0	85.32	151.98	96.43
          28	1	10	1	0.0	89.25	150.68	94.65
          29	1	10	3	0.0	89.83	149.21	92.84
          30	1	10	4	0.0	90.47	151.05	95.52
          31	1	11	1	0.0	89.2	146.88	94.11
          32	1	11	3	0.0	88.52	146.09	91.88
          33	1	11	4	0.0	89.08	145.91	95.27999
          34	1	12	1	0.0	86.01	147.14	92.03001
          35	1	12	3	0.0	86.25001	147.35	89.52
          36	1	12	4	0.0	84.69	147.46	92.7
          37	1	13	1	0.0	87.16	150.12	89.85
          38	1	13	3	0.0	88.33	149.44	87.77
          39	1	13	4	0.0	87.51	151.51	90.49
          40	1	14	1	0.0	90.439995	148.26	89.23001
          41	1	14	3	0.0	90.25001	146.68	87.42
          42	1	14	4	0.0	91.41	147.88	90.4
          43	1	15	1	0.0	88.75	144.8	88.46
          44	1	15	3	0.0	88.19	144.42	86.130005
          45	1	15	4	0.0	88.08	143.67	89.33
          46	1	16	1	0.0	86.50001	146.64	85.96
          47	1	16	3	0.0	87.19	146.8	83.66
          48	1	16	4	0.0	85.44	147.7	86.28
          49	1	17	1	0.0	89.49999	148.3	84.17
          50	1	17	3	0.0	90.439995	147.04	82.26
          51	1	17	4	0.0	90.50001	149.27	84.75
          52	1	18	1	0.0	91.01001	144.72	84.1
          53	1	18	3	0.0	90.6	143.48	82.11
          54	1	18	4	0.0	91.45	143.91	85.28
          55	1	19	1	0.0	87.84	143.12	82.4
          56	1	19	3	0.0	87.49	143.42	80.04
          57	1	19	4	0.0	86.51999	142.51	83.09
          58	1	20	1	0.0	87.5	146.27	80.07
          59	1	20	3	0.0	88.64	145.93	77.94
          60	1	20	4	0.0	87.48	147.75	80.61
          61	1	21	1	0.0	91.12	145.67	78.99
          62	1	21	3	0.0	91.56	144.29	77.2
          63	1	21	4	0.0	92.3	145.79	79.94
          64	1	22	1	0.0	90.37001	141.87	78.43
          65	1	22	3	0.0	89.76	141.2	76.26
          66	1	22	4	0.0	90.1	140.9	79.58
          67	1	23	1	0.0	87.41	142.75	76.38
          68	1	23	3	0.0	87.73	142.95	74.05
          69	1	23	4	0.0	86.19999	143.66	76.84
          70	1	24	1	0.0	89.52	145.22	74.47
          71	1	24	3	0.0	90.43	144.32	72.42
          72	1	24	5	0.0	88.7	137.21563478	69.3419033
          73	1	25	1	0.0	92.19	142.53	73.74
          74	1	25	3	0.0	91.79	141.47	71.61
          75	1	25	4	0.0	92.88	141.63	74.89
          76	1	26	1	0.0	89.34	140.11	72.47
          77	1	26	3	0.0	88.85999	140.32	70.13
          78	1	26	4	0.0	88.23	139.71	73.47
          79	1	27	1	0.0	87.90001	142.98	70.27
          80	1	27	3	0.0	88.63	142.94	67.96
          81	1	27	4	0.0	87.29	144.33	70.81
          82	1	28	1	0.0	91.27999	143.45	68.75
          83	1	28	3	0.0	91.81	142.07	66.88
          84	1	28	4	0.0	92.56	143.93	69.55
          85	1	29	1	0.0	91.67	139.61	68.31
          86	1	29	3	0.0	90.83999	138.52	66.29
          87	1	29	4	0.0	91.78001	138.56	69.44
          88	1	30	1	0.0	88.16999	139.1	66.74
          89	1	30	3	0.0	87.13	139.56	64.6
          90	1	30	4	0.0	86.98	139.02	67.81
          91	1	31	1	0.0	87.42	142.32	64.63
          92	1	31	3	0.0	89.47	142.18	63.45
          93	1	31	4	0.0	87.46001	143.79	65.24
          94	1	32	1	0.0	88.45	142.6	60.96
          95	1	32	3	0.0	88.659996	145.02	60.98
          96	1	32	4	0.0	87.49	142.53	59.84
          97	1	33	1	0.0	91.51	144.92	60.620003
          98	1	33	3	0.0	90.73	144.93	58.31
          99	1	33	4	0.0	92.979996	144.4	60.57
         100	1	34	1	0.0	91.67	147.46	57.77
         101	1	34	3	0.0	93.04001	147.67	55.69
         102	1	34	4	0.0	91.56	149.07	58.02
         103	1	35	1	0.0	95.270004	146.26	56.88
         104	1	35	3	0.0	94.73	143.87	56.88
         105	1	35	4	0.0	96.49	146.26	57.92
         106	1	36	1	0.0	95.37	143.44	54.209995
         107	1	36	3	0.0	95.37	141.26	54.87
         108	1	36	4	0.0	95.72	143.61	52.73
         109	1	37	1	0.0	97.97	141.14	55.83
         110	1	37	3	0.0	97.4	139.38	57.33
         111	1	37	4	0.0	99.47	141.46	56.109997
         112	1	38	1	0.0	95.94	141.09	59.05
         113	1	38	3	0.0	94.27	139.48	59.2
         114	1	38	4	0.0	95.84999	142.32	59.96
         115	1	39	1	0.0	92.76	140.5	56.900005
         116	1	39	3	0.0	91.88	138.29	56.620003
         117	1	39	4	0.0	92.09	141.42	55.83
         118	1	40	1	0.0	94.450005	137.53	55.34
         119	1	40	3	0.0	95.06	135.37	56.08
         120	1	40	4	0.0	95.649994	137.6	54.2
         121	1	41	1	0.0	96.12	136.36	58.64
         122	1	41	3	0.0	98.09	135.1	58.86
         123	1	41	4	0.0	95.48	135.08	59.33
         124	1	42	1	0.0	99.56	136.25	56.780003
         125	1	42	3	0.0	101.51	136.36	58.2
         126	1	42	4	0.0	100.04	136.66	55.350002
         127	1	43	1	0.0	100.55	138.34	59.77
         128	1	43	3	0.0	98.450005	139.1	60.740005
         129	1	43	4	0.0	101.16001	139.85	59.61
         130	1	44	1	0.0	98.75	137.53	62.97
         131	1	44	3	0.0	98.83	138.05	65.33
         132	1	44	4	0.0	98.49	136.03	63.259995
         133	1	45	1	0.0	101.51	138.93	65.21
         134	1	45	3	0.0	100.95	139.91	67.4
         135	1	45	4	0.0	102.89001	139.25	64.62
         136	1	46	1	0.0	99.72	142.16	66.36
         137	1	46	3	0.0	98.46	142.24	68.45
         138	1	46	4	0.0	99.16	143.23	65.47
         139	1	47	1	0.0	96.81	140.08	67.8
         140	1	47	3	0.0	96.69	138.75	69.72
         141	1	47	4	0.0	95.81	139.5	66.77
         142	1	48	1	0.0	99.04	137.33	69.24
         143	1	48	3	0.0	99.82	137.54	71.52
         144	1	48	4	0.0	100.04	136.38	68.46
         145	1	49	1	0.0	100.37	140.28	71.32
         146	1	49	3	0.0	99.25	140.7	73.43
         147	1	49	4	0.0	101.02	141.61	70.82
         148	1	50	1	0.0	96.81	140.87	72.46
         149	1	50	3	0.0	96.03001	139.51	74.36
         150	1	50	4	0.0	95.72	141.38	71.45
         151	1	51	1	0.0	96.5	137.03	73.19
         152	1	51	3	0.0	97.04001	136.3	75.4
         153	1	51	4	0.0	96.59	135.89	72.19
         154	1	52	1	0.0	99.64	137.31	75.47
         155	1	52	3	0.0	99.22	137.86	77.86
         156	1	52	4	0.0	101.09	137.82	75.01
         157	1	53	1	0.0	98.01	140.27	77.35
         158	1	53	3	0.0	96.47001	139.77	79.17
         159	1	53	4	0.0	97.9	141.61	76.65
         160	1	54	1	0.0	94.66	138.44	77.43
         161	1	54	3	0.0	94.509995	137.1	79.39
         162	1	54	4	0.0	93.97	137.91	76.06
         163	1	55	1	0.0	96.15001	135.15	78.77
         164	1	55	3	0.0	96.48	134.78	81.13
         165	1	55	4	0.0	96.85	134.02	78.02
         166	1	56	1	0.0	97.94	136.85	81.69
         167	1	56	3	0.0	96.79001	137.43	83.6
         168	1	56	4	0.0	99.32	137.63	81.82
         169	1	57	1	0.0	94.78	138.96	82.24
         170	1	57	3	0.0	93.2	138.18	83.75
         171	1	57	5	0.0	96.02	131.28305475	77.21849204
         172	1	58	1	0.0	92.9	135.7	82.37
         173	1	58	3	0.0	92.44	134.94	84.56
         174	1	58	4	0.0	92.76	134.64	81.3
         175	1	59	1	0.0	95.29	134.65	85.19
         176	1	59	3	0.0	95.13	135.17	87.49
         177	1	59	4	0.0	96.78	134.26	84.96
         178	1	60	1	0.0	94.79	138.01	87.03
         179	1	60	3	0.0	92.979996	138.41	88.659996
         180	1	60	4	0.0	95.38	139.34	86.439995
         181	1	61	1	0.0	90.85	138.06	86.72
         182	1	61	3	0.0	89.490005	137.88	88.64
         183	1	61	4	0.0	89.98	137.8	85.52
         184	1	62	1	0.0	89.96	135.43	89.35
         185	1	62	3	0.0	89.84	136.01	91.58001
         186	1	62	4	0.0	90.16	133.95	89.17999
         187	1	63	1	0.0	92.58	136.83	91.77
         188	1	63	3	0.0	91.86	138.54	93.28
         189	1	63	4	0.0	94.06	136.96	91.399994
         190	1	64	1	0.0	91.2	140.41	91.16
         191	1	64	3	0.0	89.47	141.1	92.65
         192	1	64	4	0.0	91.079994	141.05	89.68001
         193	1	65	1	0.0	87.63	139.41	91.66
         194	1	65	3	0.0	86.74	139.68	93.84
         195	1	65	4	0.0	86.83	138.43	90.8
         196	1	66	1	0.0	88.32	137.56	94.91
         197	1	66	3	0.0	88.28999	138.69	96.98999
         198	1	66	4	0.0	89.28	136.41	95.05
         199	1	67	1	0.0	90.4	140.57	96.13
         200	1	67	3	0.0	89.52	142.35	97.53
         201	1	67	4	0.0	91.52	141.14	95.36
         202	1	68	1	0.0	87.07	142.67	96.09999
         203	1	68	3	0.0	85.84	142.71	98.11
         204	1	68	4	0.0	86.05001	142.88	94.89001
         205	1	69	1	0.0	85.38	140.05	98.22
         206	1	69	3	0.0	85.49	140.07	100.53999
         207	1	69	4	0.0	84.84	138.72	97.869995
         208	1	70	1	0.0	88.18	139.75	100.61
         209	1	70	3	0.0	89.04001	141.89	100.12
         210	1	70	4	0.0	89.4	138.83	100.37
         211	1	71	1	0.0	89.35	142.6	102.700005
         212	1	71	3	0.0	91.56	143.48	102.57001
         213	1	71	5	0.0	88.85	134.80533245	96.52976219
         214	1	72	1	0.0	92.85	141.0	102.759995
         215	1	72	3	0.0	92.41999	140.63	100.45
         216	1	72	4	0.0	93.22	139.76	103.57
         217	1	73	1	0.0	94.92	141.04	99.55
         218	1	73	3	0.0	95.76	138.93	100.21
         219	1	73	4	0.0	95.77	142.26	99.16
         220	1	74	1	0.0	96.69	138.26	97.74999
         221	1	74	3	0.0	96.5	136.03	98.67
         222	1	74	4	0.0	97.29	138.15	96.28
         223	1	75	1	0.0	94.15	135.4	97.46
         224	1	75	3	0.0	93.98	133.72	95.87
         225	1	75	4	0.0	92.69	135.71	97.30999
         226	1	76	1	0.0	96.81	133.65	95.399994
         227	1	76	3	0.0	98.85	133.98	96.65
         228	1	76	4	0.0	97.34	134.37	94.08
         229	1	77	1	0.0	99.329994	131.22	97.29
         230	1	77	3	0.0	100.93	132.06	95.78001
         231	1	77	4	0.0	99.18	129.7	97.01
         232	1	78	1	0.0	102.87	132.57	97.61001
         233	1	78	3	0.0	104.19	132.85	95.67
         234	1	78	4	0.0	103.73	132.69	98.91
         235	1	79	1	0.0	104.8	130.13	95.47
         236	1	79	3	0.0	104.94	130.49	93.15
         237	1	79	4	0.0	105.05999	128.63	95.7
         238	1	80	1	0.0	102.05001	130.62	92.9
         239	1	80	3	0.0	102.25001	132.42	91.32
         240	1	80	4	0.0	100.59	130.14	92.83
         241	1	81	1	0.0	102.27	134.36	93.37
         242	1	81	3	0.0	103.67	135.46	91.74
         243	1	81	4	0.0	102.00001	135.1	94.75
         244	1	82	1	0.0	106.08	134.44	92.85
         245	1	82	3	0.0	106.9	134.95	90.63999
         246	1	82	4	0.0	107.020004	133.64	93.78
         247	1	83	1	0.0	105.83	132.66	89.49999
         248	1	83	3	0.0	105.45	134.15	87.64
         249	1	83	4	0.0	105.25	131.29	89.47
         250	1	84	1	0.0	102.8	134.79	88.59
         251	1	84	3	0.0	102.95	136.93	87.45
         252	1	84	4	0.0	101.490005	134.52	89.41
         253	1	85	1	0.0	104.41999	138.15	89.28
         254	1	85	3	0.0	105.810005	138.93	87.49
         255	1	85	4	0.0	104.729996	138.84	90.58
         256	1	86	1	0.0	107.63	136.86	87.51
         257	1	86	3	0.0	107.92	137.44	85.18
         258	1	86	4	0.0	108.69	135.71	87.96999
         259	1	87	1	0.0	105.6	136.07	84.33
         260	1	87	3	0.0	105.48001	137.84	82.78
         261	1	87	4	0.0	104.32	135.11	84.29
         262	1	88	1	0.0	104.14	139.6	84.61
         263	1	88	3	0.0	105.42999	141.25	83.38
         264	1	88	4	0.0	103.29	140.0	85.88
         265	1	89	1	0.0	107.74	140.97	84.92
         266	1	89	3	0.0	109.12	141.36	82.96
         267	1	89	4	0.0	108.82	140.82	86.09
         268	1	90	1	0.0	108.96	138.75	81.95
         269	1	90	3	0.0	108.979996	139.68	79.7
         270	1	90	4	0.0	109.01	137.21	82.09
         271	1	91	1	0.0	106.16	139.74	79.48
         272	1	91	3	0.0	106.36	141.94	78.27
         273	1	91	4	0.0	104.670006	139.37	79.52
         274	1	92	1	0.0	106.66	143.36	80.65
         275	1	92	3	0.0	108.28999	144.58	79.32
         276	1	92	4	0.0	106.46	143.9	82.09
         277	1	93	1	0.0	110.50001	143.13	80.11
         278	1	93	3	0.0	111.16	143.67	77.8
         279	1	93	4	0.0	111.58001	142.28	80.76
         280	1	94	1	0.0	109.77	141.58	76.61
         281	1	94	3	0.0	109.64	143.1	74.69
         282	1	94	4	0.0	108.96	140.23	76.38
         283	1	95	1	0.0	107.29	144.4	75.71
         284	1	95	3	0.0	108.3	146.13	74.49
         285	1	95	4	0.0	105.99999	144.74	76.49
         286	1	96	1	0.0	109.97	146.84	76.53
         287	1	96	3	0.0	111.590004	147.37	74.87
         288	1	96	4	0.0	110.46	147.16	77.99
         289	1	97	1	0.0	112.88	144.99	74.74
         290	1	97	3	0.0	113.240005	145.75	72.5
         291	1	97	4	0.0	113.54	143.64	75.26
         292	1	98	1	0.0	110.94001	144.46	71.46
         293	1	98	3	0.0	110.94001	146.3	69.95
         294	1	98	4	0.0	109.65	143.48	71.3
         295	1	99	1	0.0	109.85	148.19	71.61
         296	1	99	3	0.0	111.329994	149.78	70.46
         297	1	99	4	0.0	109.04001	148.87	72.74
         298	1	100	1	0.0	113.53	149.09	71.86
         299	1	100	3	0.0	114.54	149.22	69.65
         300	1	100	4	0.0	114.53	148.78	73.0
         301	1	101	1	0.0	114.509995	146.5	69.31
         302	1	101	3	0.0	114.72	147.18	66.9
         303	1	101	4	0.0	114.130005	145.02	69.56
         304	1	102	1	0.0	112.11	147.68	66.45
         305	1	102	3	0.0	113.03	149.48	65.14
         306	1	102	4	0.0	110.6	147.58	66.32
         307	1	103	1	0.0	113.26	151.21	67.29
         308	1	103	3	0.0	115.16	152.15	66.14
         309	1	103	4	0.0	113.2	151.96	68.67
         310	1	104	1	0.0	116.96	150.14	66.8
         311	1	104	3	0.0	117.89	150.09	64.63
         312	1	104	4	0.0	117.76	149.15	67.8
         313	1	105	1	0.0	116.04	148.38	63.6
         314	1	105	3	0.0	116.53999	149.61	61.56
         315	1	105	4	0.0	115.2	147.03	63.44
         316	1	106	1	0.0	114.56	151.48	61.91
         317	1	106	3	0.0	115.95	153.1	60.92
         318	1	106	4	0.0	113.23001	152.18	62.269997
         319	1	107	1	0.0	117.42	153.52	63.27
         320	1	107	3	0.0	119.3	153.94	61.83
         321	1	107	4	0.0	117.74999	153.84	64.82
         322	1	108	1	0.0	120.16999	151.38	61.62
         323	1	108	3	0.0	120.64	151.56	59.28
         324	1	108	4	0.0	120.91001	150.11	62.06
         325	1	109	1	0.0	117.99	150.99	58.429996
         326	1	109	3	0.0	118.6	152.24	56.520004
         327	1	109	4	0.0	116.57	150.35	58.329998
         328	1	110	1	0.0	117.99	154.65	57.69
         329	1	110	3	0.0	119.64	155.73	56.31
         330	1	110	4	0.0	117.17999	155.7	58.429996
         331	1	111	1	0.0	121.89	155.06	57.890003
         332	1	111	3	0.0	121.869995	153.9	55.75
         333	1	111	4	0.0	122.82001	154.42	58.93
         334	1	112	1	0.0	124.11	155.33	54.749996
         335	1	112	3	0.0	123.22	154.23	52.89
         336	1	112	4	0.0	125.14	154.23	54.82
         337	1	113	1	0.0	121.67	156.36	51.82
         338	1	113	3	0.0	119.69	155.37	51.060005
         339	1	113	4	0.0	121.44	157.79	51.4
         340	1	114	1	0.0	118.83	154.33	53.49
         341	1	114	3	0.0	119.37	152.54	51.81
         342	1	114	4	0.0	117.47	154.98	53.04
         343	1	115	1	0.0	118.95	150.44	53.53
         344	1	115	3	0.0	116.61	150.49	52.680004
         345	1	115	4	0.0	118.93	149.44	54.73
         346	1	116	1	0.0	117.22	148.67	50.57
         347	1	116	3	0.0	119.020004	147.03	50.04
         348	1	116	4	0.0	116.81	149.63	49.36
         349	1	117	1	0.0	117.19	145.16	49.07
         350	1	117	3	0.0	115.1	144.72	48.08
         351	1	117	4	0.0	117.52	144.08	50.19
         352	1	118	1	0.0	116.16999	143.28	45.83
         353	1	118	3	0.0	114.23	141.9	45.78
         354	1	118	4	0.0	117.21	142.64	44.83
         355	1	119	1	0.0	115.08999	140.21	47.890003
         356	1	119	3	0.0	114.9	141.75	49.62
         357	1	119	4	0.0	115.92	138.93	48.04
         358	1	120	1	0.0	112.77	140.6	50.840004
         359	1	120	3	0.0	111.649994	138.56	50.96
         360	1	120	4	0.0	111.52	141.39	50.45
         361	1	121	1	0.0	112.36	138.14	53.639996
         362	1	121	3	0.0	111.89	139.22	55.68
         363	1	121	4	0.0	113.69	137.48	54.26
         364	1	122	1	0.0	109.42999	137.86	56.0
         365	1	122	3	0.0	110.03	137.54	58.31
         366	1	122	4	0.0	108.16999	137.23	55.45
         367	1	123	1	0.0	111.39	135.12	57.950005
         368	1	123	3	0.0	112.21999	135.93	59.97
         369	1	123	4	0.0	112.15001	133.92	57.34
         370	1	124	1	0.0	114.3	137.45	58.67
         371	1	124	3	0.0	114.28	138.62	60.780003
         372	1	124	4	0.0	115.329994	137.87	57.68
         373	1	125	1	0.0	111.91	140.07	60.29
         374	1	125	3	0.0	111.44	139.69	62.73
         375	1	125	4	0.0	110.63999	140.57	59.58
         376	1	126	1	0.0	110.27	137.26	62.460003
         377	1	126	3	0.0	111.07	136.85	64.73
         378	1	126	4	0.0	109.51	136.01	61.85
         379	1	127	1	0.0	113.58	135.76	63.84
         380	1	127	3	0.0	115.07	136.42	65.44
         381	1	127	4	0.0	114.33	134.79	62.93
         382	1	128	1	0.0	114.58	139.25	65.05
         383	1	128	3	0.0	114.14	139.43	67.5
         384	1	128	4	0.0	114.43	140.65	64.44
         385	1	129	1	0.0	111.42	138.89	67.43
         386	1	129	3	0.0	112.15001	137.88	69.48
         387	1	129	4	0.0	109.99	138.79	67.07
         388	1	130	1	0.0	112.49	135.35	68.31
         389	1	130	3	0.0	113.94999	134.89	70.24
         390	1	130	4	0.0	112.27	134.15	67.47
         391	1	131	1	0.0	116.03001	136.2	69.09
         392	1	131	3	0.0	116.47001	136.94	71.34
         393	1	131	4	0.0	117.1	136.56	68.06
         394	1	132	1	0.0	115.22	139.36	71.23
         395	1	132	3	0.0	114.93	138.88	73.59
         396	1	132	4	0.0	114.57001	140.58	70.78
         397	1	133	1	0.0	112.8	136.95	73.17
         398	1	133	3	0.0	113.71	135.89	75.12
         399	1	133	4	0.0	111.55	136.33	72.48
         400	1	134	1	0.0	115.5	134.2	73.71
         401	1	134	3	0.0	116.729996	134.24	75.74
         402	1	134	4	0.0	116.28999	133.52	72.61
         403	1	135	1	0.0	117.84	136.81	75.22
         404	1	135	3	0.0	117.64	137.85	77.37
         405	1	135	4	0.0	118.82001	137.75	74.55
         406	1	136	1	0.0	114.82001	138.44	77.05
         407	1	136	3	0.0	114.83999	138.12	79.45
         408	1	136	4	0.0	113.4	138.85	76.54
         409	1	137	1	0.0	114.58	135.35	79.36
         410	1	137	3	0.0	115.96	135.51	81.29
         411	1	137	4	0.0	114.380005	133.83	79.05
         412	1	138	1	0.0	118.380005	135.66	79.85
         413	1	138	3	0.0	119.08999	136.99	81.72
         414	1	138	5	0.0	117.01	126.39749811	74.79735508
         415	1	139	1	0.0	118.23	139.42	80.62
         416	1	139	3	0.0	117.99	139.97	82.9
         417	1	139	4	0.0	117.78	140.52	79.64
         418	1	140	1	0.0	115.36	138.68	83.15
         419	1	140	3	0.0	115.81	138.35	85.43
         420	1	140	4	0.0	113.94	138.01	82.81
         421	1	141	1	0.0	117.04001	135.91	85.22
         422	1	141	3	0.0	117.76	135.9	87.43
         423	1	141	4	0.0	117.549995	134.56	84.66
         424	1	142	1	0.0	119.49	138.09	87.47
         425	1	142	3	0.0	119.04	138.83	89.6
         426	1	142	4	0.0	120.31	139.19	86.759995
         427	1	143	1	0.0	116.19	139.35	89.05
         428	1	143	3	0.0	115.72	138.39	91.11
         429	1	143	4	0.0	115.05	140.22	88.46
         430	1	144	1	0.0	115.32	135.87	90.46
         431	1	144	3	0.0	116.53999	135.37	92.28999
         432	1	144	4	0.0	114.62	134.72	89.65
         433	1	145	1	0.0	118.92	134.63	90.75
         434	1	145	3	0.0	120.06	134.85	92.88
         435	1	145	4	0.0	119.76	134.37	89.549995
         436	1	146	1	0.0	119.83001	137.67	92.95
         437	1	146	3	0.0	119.5	137.56	95.37
         438	1	146	4	0.0	119.72	139.13	92.36
         439	1	147	1	0.0	116.78	136.81	95.13
         440	1	147	3	0.0	116.79001	135.1	96.81
         441	1	147	5	0.0	117.68001	128.54933572	89.72758203
         442	1	148	1	0.0	117.93001	133.19	95.27999
         443	1	148	3	0.0	119.47	132.34	96.95
         444	1	148	4	0.0	118.03	132.13	94.15
         445	1	149	1	0.0	121.32	134.29	96.51
         446	1	149	3	0.0	121.72	134.73	98.75
         447	1	149	4	0.0	122.28	135.25	95.73
         448	1	150	1	0.0	119.79	136.8	99.08999
         449	1	150	3	0.0	117.39	137.18	98.83
         450	1	150	4	0.0	120.44	138.21	98.87
         451	1	151	1	0.0	116.81	135.94	101.17999
         452	1	151	3	0.0	114.89001	137.11	101.96
         453	1	151	4	0.0	116.78	134.69	102.05001
         454	1	152	1	0.0	116.2	139.66	102.09
         455	1	152	3	0.0	115.68	141.61	100.659996
         456	1	152	4	0.0	116.95	140.53	103.079994
         457	1	153	1	0.0	116.11	140.45	98.29
         458	1	153	3	0.0	114.93	138.72	97.27
         459	1	153	4	0.0	117.46	140.58	97.61001
         460	1	154	1	0.0	113.46	140.18	95.57
         461	1	154	3	0.0	111.03	140.1	95.96999
         462	1	154	4	0.0	114.1	139.43	94.51999
         463	1	155	1	0.0	111.18	137.31	96.85999
         464	1	155	3	0.0	109.83	136.77	98.76999
         465	1	155	4	0.0	111.52999	135.87	96.56
         466	1	156	1	0.0	111.7	138.33	100.53999
         467	1	156	3	0.0	109.36001	139.09	100.670006
         468	1	156	4	0.0	112.670006	139.35	101.05999
         469	1	157	1	0.0	108.79001	137.89	103.12
         470	1	157	3	0.0	106.450005	137.92	102.81
         471	1	157	4	0.0	108.63	139.36	103.69
         472	1	158	1	0.0	106.49	136.2	100.45
         473	1	158	3	0.0	104.79001	137.38	99.16
         474	1	158	5	0.0	107.62	126.42390352	93.83438512
         475	1	159	1	0.0	106.759995	139.27	97.99999
         476	1	159	3	0.0	106.66	138.09	95.89
         477	1	159	4	0.0	108.03001	139.93	97.51
         478	1	160	1	0.0	104.14	139.2	95.3
         479	1	160	3	0.0	103.52	140.88	93.73
         480	1	160	4	0.0	102.79	138.58	95.52
         481	1	161	1	0.0	104.53	143.09	95.27999
         482	1	161	3	0.0	105.57	144.02	93.4
         483	1	161	4	0.0	104.71	144.06	96.51
         484	1	162	1	0.0	107.90001	142.27	93.51
         485	1	162	3	0.0	109.25	144.16	93.21
         486	1	162	4	0.0	108.31	140.8	93.47
         487	1	163	1	0.0	110.89001	143.51	95.43
         488	1	163	3	0.0	109.42	145.28	96.28999
         489	1	163	4	0.0	111.93	143.62	94.31999
         490	1	164	1	0.0	111.29	146.56	97.79
         491	1	164	3	0.0	112.0	147.96	95.92
         492	1	164	4	0.0	112.19	146.55	99.020004
         493	1	165	1	0.0	110.63	150.15	96.979996
         494	1	165	3	0.0	111.94	151.38	95.26001
         495	1	165	4	0.0	109.96	151.21	97.87999
         496	1	166	1	0.0	114.26	151.59	96.68
         497	1	166	3	0.0	115.26001	151.75	94.55
         498	1	166	4	0.0	115.19	151.67	97.869995
         499	1	167	1	0.0	115.75	148.93	94.34
         500	1	167	3	0.0	115.36	149.1	91.90001
         501	1	167	4	0.0	115.72	147.49	94.81
         502	1	168	1	0.0	112.56	149.14	92.28
         503	1	168	3	0.0	112.16	150.7	90.46
         504	1	168	4	0.0	111.29	148.58	92.8
         505	1	169	1	0.0	113.03	152.94	91.92
         506	1	169	3	0.0	113.74	153.66	89.76
         507	1	169	4	0.0	113.29	153.97	93.05999
         508	1	170	1	0.0	116.16999	152.16	89.98
         509	1	170	3	0.0	115.74	151.93	87.58001
         510	1	170	4	0.0	117.4	151.37	90.47
         511	1	171	1	0.0	113.99999	149.81	87.79
         512	1	171	3	0.0	113.17999	150.9	85.9
         513	1	171	5	0.0	114.72	139.12927056	81.56022345
         514	1	172	1	0.0	111.39	152.66	87.20999
         515	1	172	3	0.0	111.83001	154.1	85.32
         516	1	172	4	0.0	110.55	153.31	88.350006
         517	1	173	1	0.0	114.31999	155.08	86.26
         518	1	173	3	0.0	115.07	155.31	84.03
         519	1	173	4	0.0	115.57	155.54	87.08999
         520	1	174	1	0.0	115.63	152.74	83.59
         521	1	174	3	0.0	114.759995	153.11	81.28
         522	1	174	4	0.0	116.43	151.43	83.58
         523	1	175	1	0.0	112.21999	152.21	81.92
         524	1	175	3	0.0	111.44	153.97	80.41
         525	1	175	4	0.0	110.99	151.4	82.52
         526	1	176	1	0.0	111.64	156.03	82.11
         527	1	176	3	0.0	112.350006	157.17	80.11
         528	1	176	4	0.0	111.83001	156.89	83.4
         529	1	177	1	0.0	115.1	156.76	80.44
         530	1	177	3	0.0	114.8	156.83	78.03
         531	1	177	4	0.0	116.46	156.31	81.12
         532	1	178	1	0.0	115.18	154.08	77.6
         533	1	178	3	0.0	113.810005	154.59	75.87
         534	1	178	4	0.0	116.21	152.94	77.75
         535	1	179	1	0.0	111.95	152.58	76.23
         536	1	179	3	0.0	110.31999	153.82	75.02
         537	1	179	4	0.0	111.329994	151.34	76.82
         538	1	180	1	0.0	109.62999	155.53	77.16
         539	1	180	3	0.0	109.73	157.42	75.56
         540	1	180	4	0.0	108.98999	155.84	78.55
         541	1	181	1	0.0	112.02	158.42	76.54
         542	1	181	3	0.0	112.47001	158.83	74.27
         543	1	181	4	0.0	112.69	159.31	77.58
         544	1	182	1	0.0	115.11	158.09	74.29
         545	1	182	3	0.0	114.8	157.7	71.86
         546	1	182	4	0.0	116.57	157.72	74.6
         547	1	183	1	0.0	113.74	155.24	71.96
         548	1	183	3	0.0	112.4	155.48	69.92
         549	1	183	4	0.0	113.490005	153.79	72.35
         550	1	184	1	0.0	110.37001	156.79	71.25
         551	1	184	3	0.0	110.41	158.17	69.16
         552	1	184	4	0.0	109.33	157.24	72.28
         553	1	185	1	0.0	112.14	160.05	70.36
         554	1	185	3	0.0	112.97	160.44	68.25
         555	1	185	4	0.0	112.88	161.03	71.39
         556	1	186	1	0.0	114.509995	158.23	68.19
         557	1	186	3	0.0	113.99	158.16	65.96
         558	1	186	4	0.0	115.44	157.05	68.48
         559	1	187	1	0.0	111.69	156.67	66.14
         560	1	187	3	0.0	111.020004	158.1	64.17
         561	1	187	4	0.0	110.55	155.75	66.62
         562	1	188	1	0.0	109.99	160.13	65.67
         563	1	188	3	0.0	110.62	161.45	63.8
         564	1	188	4	0.0	109.46	160.86	66.92
         565	1	189	1	0.0	113.2	161.84	64.64
         566	1	189	3	0.0	114.01	161.63	62.45
         567	1	189	4	0.0	114.46	162.06	65.59
         568	1	190	1	0.0	113.94999	158.79	62.44
         569	1	190	3	0.0	113.299995	159.17	60.209995
         570	1	190	4	0.0	114.1	157.29	62.92
         571	1	191	1	0.0	110.50001	159.33	60.63
         572	1	191	3	0.0	110.42	160.95	58.91
         573	1	191	4	0.0	109.10999	159.05	61.23
         574	1	192	1	0.0	111.38	163.1	60.429996
         575	1	192	3	0.0	112.71	163.87	58.64
         576	1	192	4	0.0	111.61	164.12	61.65
         577	1	193	1	0.0	114.93	162.32	58.99
         578	1	193	3	0.0	115.399994	161.85	56.69
         579	1	193	4	0.0	116.11	161.61	59.790005
         580	1	194	1	0.0	113.30999	159.92	56.520004
         581	1	194	3	0.0	112.3	161.69	55.2
         582	1	194	4	0.0	112.03001	159.07	56.749996
         583	1	195	1	0.0	113.549995	160.8	52.740005
         584	1	195	3	0.0	113.51	158.68	51.81
         585	1	195	4	0.0	114.95999	161.2	52.300003
         586	1	196	1	0.0	111.649994	159.41	49.77
         587	1	196	3	0.0	113.65	160.14	48.73
         588	1	196	4	0.0	110.51999	160.15	49.060005
         589	1	197	1	0.0	113.78	157.99	46.85
         590	1	197	3	0.0	116.08	158.69	46.35
         591	1	197	4	0.0	113.299995	158.77	45.61
         592	1	198	1	0.0	117.09	157.54	48.54
         593	1	198	3	0.0	116.78	155.3	48.999996
         594	1	198	4	0.0	117.32	158.16	49.9
         595	1	199	1	0.0	119.29	154.52	48.09
         596	1	199	3	0.0	121.04001	155.77	46.99
         597	1	199	4	0.0	118.59	153.47	47.18
         598	1	200	1	0.0	122.83999	153.62	47.17
         599	1	200	3	0.0	123.88	152.05	45.61
         600	1	200	4	0.0	123.96	153.46	48.2
         601	1	201	1	0.0	121.65	150.55	45.09
         602	1	201	3	0.0	121.42999	151.82	43.190002
         603	1	201	4	0.0	120.32	149.77	45.27
         604	1	202	1	0.0	122.86	150.01	41.45
         605	1	202	3	0.0	120.670006	149.5	40.61
         606	1	202	4	0.0	123.63	148.76	40.92
         607	1	203	1	0.0	120.75	150.91	38.3
         608	1	203	3	0.0	122.509995	151.57	36.83
         609	1	203	4	0.0	119.49	151.72	38.61
         610	1	204	1	0.0	120.79001	151.24	34.45
         611	1	204	3	0.0	119.37	153.18	34.76
         612	1	204	4	0.0	120.24	150.12	33.42
         613	1	205	1	0.0	121.08	154.79	33.26
         614	1	205	3	0.0	121.67	154.81	35.61
         615	1	205	4	0.0	119.67	155.44	32.93
         616	1	206	1	0.0	122.82001	157.61	35.32
         617	1	206	3	0.0	120.77	157.74	36.63
         618	1	206	5	0.0	122.17	148.33351836	33.22250238
         619	1	207	1	0.0	122.49	158.56	38.95
         620	1	207	3	0.0	120.63	157.21	39.43
         621	1	207	4	0.0	121.76	159.92	39.02
         622	1	208	1	0.0	121.93001	155.88	41.58
         623	1	208	3	0.0	119.69	155.4	42.06
         624	1	208	4	0.0	122.91	155.36	42.66
         625	1	209	1	0.0	119.37	157.6	43.84
         626	1	209	3	0.0	117.85	159.39	43.08
         627	1	209	4	0.0	119.68	158.61	45.04
         628	1	210	1	0.0	116.670006	157.89	41.15
         629	1	210	3	0.0	114.66	158.18	42.41
         630	1	210	4	0.0	116.43	156.84	40.04
         631	1	211	1	0.0	113.62999	160.19	40.82
         632	1	211	3	0.0	112.979996	159.97	38.57
         633	1	211	4	0.0	113.71	161.82	40.85
         634	1	212	1	0.0	110.88	158.27	39.26
         635	1	212	3	0.0	108.79001	157.12	39.37
         636	1	212	4	0.0	111.649994	156.98	38.76
         637	1	213	1	0.0	107.96	158.01	41.79
         638	1	213	3	0.0	105.84	157.51	40.82
         639	1	213	4	0.0	107.66	158.38	43.27
         640	1	214	1	0.0	105.52	160.07	39.72
         641	1	214	3	0.0	105.25	160.77	37.51
         642	1	214	4	0.0	104.9	161.45	40.05
         643	1	215	1	0.0	107.46001	159.08	36.46
         644	1	215	3	0.0	109.21	160.68	36.96
         645	1	215	4	0.0	106.83	159.86	35.26
         646	1	216	1	0.0	111.22	159.15	35.54
         647	1	216	3	0.0	111.19	161.19	34.26
         648	1	216	4	0.0	111.84999	158.3	34.4
         649	1	217	1	0.0	112.68	162.63	36.1