ITEM: TIMESTEP
0
ITEM: NUMBER OF ATOMS
8634
ITEM: BOX BOUNDS ss ss ss
32.97 189.19
30.79 168.8
-3.71 123.69
ITEM: ATOMS id type xs ys zs
1 1 0.320766 0.86827 0.87292
2 3 0.324734 0.871169 0.854945
3 4 0.326527 0.8603 0.876923
4 1 0.329343 0.889718 0.8573
5 3 0.338049 0.884936 0.842543
6 4 0.33088 0.90008 0.860675
7 1 0.352708 0.879284 0.853218
8 3 0.355204 0.869502 0.838069
9 4 0.359557 0.877255 0.86146
10 1 0.34509 0.854069 0.844898
11 3 0.34157 0.852402 0.826688
12 4 0.340481 0.846678 0.853297
13 1 0.329919 0.867328 0.825667
14 3 0.33376 0.872618 0.808399
15 4 0.322046 0.873632 0.828101
16 1 0.349187 0.881385 0.815228
17 3 0.355396 0.87414 0.799921
18 4 0.354756 0.888414 0.821272
19 1 0.361797 0.857402 0.810204
20 3 0.358597 0.848272 0.794506
21 4 0.364358 0.85088 0.819388
22 1 0.340737 0.845301 0.799137
23 3 0.338369 0.847185 0.780926
24 4 0.332416 0.842982 0.80573
25 1 0.337345 0.867763 0.781554
26 3 0.34445 0.863488 0.765306
27 4 0.335104 0.878125 0.786028
28 1 0.360261 0.868705 0.772057
29 3 0.363974 0.858054 0.757849
30 4 0.368071 0.871386 0.778885
31 1 0.359941 0.841171 0.767818
32 3 0.355588 0.835447 0.750314
33 4 0.359173 0.834142 0.777002
34 1 0.339521 0.843055 0.751491
35 3 0.341058 0.844576 0.73179
36 4 0.331072 0.845374 0.75675
37 1 0.346883 0.864647 0.73438
38 3 0.354372 0.85972 0.718053
39 4 0.349123 0.874719 0.739403
40 1 0.367879 0.85117 0.729513
41 3 0.366662 0.839722 0.715306
42 4 0.374088 0.848417 0.738697
43 1 0.357061 0.8261 0.723469
44 3 0.353476 0.823346 0.705181
45 4 0.352772 0.817912 0.730298
46 1 0.342658 0.839432 0.703846
47 3 0.347075 0.840591 0.685793
48 4 0.335872 0.847113 0.706358
49 1 0.361861 0.85146 0.689796
50 3 0.367879 0.84233 0.674804
51 4 0.368263 0.858489 0.694349
52 1 0.371527 0.82552 0.689247
53 3 0.368903 0.816535 0.673626
54 4 0.374344 0.819651 0.698509
55 1 0.351235 0.813927 0.675903
56 3 0.348995 0.8161 0.657378
57 4 0.342786 0.809507 0.681319
58 1 0.349059 0.836751 0.657614
59 3 0.356356 0.834287 0.640895
60 4 0.348931 0.847475 0.661852
61 1 0.372231 0.832403 0.649137
62 3 0.375048 0.822404 0.635086
63 4 0.379785 0.833273 0.656593
64 1 0.367431 0.804869 0.644741
65 3 0.363526 0.800014 0.627708
66 4 0.365702 0.797841 0.653768
67 1 0.348483 0.811246 0.62865
68 3 0.350531 0.812695 0.610361
69 4 0.340737 0.817839 0.632261
70 1 0.361989 0.829143 0.613658
71 3 0.367815 0.822622 0.597567
72 5 0.35674 0.771144 0.573406
73 1 0.379081 0.809651 0.607928
74 3 0.37652 0.801971 0.591209
75 4 0.383498 0.80313 0.616955
76 1 0.360837 0.792117 0.597959
77 3 0.357765 0.793638 0.579592
78 4 0.353732 0.789218 0.605809
79 1 0.35162 0.812912 0.580691
80 3 0.356292 0.812622 0.562559
81 4 0.347715 0.822694 0.584929
82 1 0.373256 0.816318 0.56876
83 3 0.376648 0.806318 0.554082
84 4 0.381449 0.819796 0.575039
85 1 0.375752 0.788494 0.565306
86 3 0.370439 0.780596 0.549451
87 4 0.376456 0.780885 0.574176
88 1 0.353348 0.784798 0.552983
89 3 0.346691 0.788131 0.536185
90 4 0.34573 0.784219 0.561382
91 1 0.348547 0.80813 0.536421
92 3 0.361669 0.807115 0.527159
93 4 0.348803 0.818781 0.541209
94 1 0.35514 0.810159 0.507614
95 3 0.356484 0.827694 0.507771
96 4 0.348995 0.809651 0.498823
97 1 0.374728 0.826969 0.504945
98 3 0.369735 0.827042 0.486813
99 4 0.384138 0.823201 0.504553
100 1 0.375752 0.845374 0.482575
101 3 0.384522 0.846895 0.466248
102 4 0.375048 0.857039 0.484537
103 1 0.398797 0.836679 0.475589
104 3 0.39534 0.819361 0.475589
105 4 0.406606 0.836679 0.483752
106 1 0.399437 0.816245 0.454631
107 3 0.399437 0.800449 0.459812
108 4 0.401677 0.817477 0.443014
109 1 0.41608 0.79958 0.467347
110 3 0.412431 0.786827 0.479121
111 4 0.425682 0.801898 0.469545
112 1 0.403085 0.799217 0.492622
113 3 0.392395 0.787552 0.493799
114 4 0.402509 0.80813 0.499765
115 1 0.382729 0.794942 0.475746
116 3 0.377096 0.778929 0.473548
117 4 0.378441 0.801609 0.467347
118 1 0.393548 0.773422 0.463501
119 3 0.397452 0.757771 0.469309
120 4 0.401229 0.773929 0.454553
121 1 0.404238 0.764945 0.489403
122 3 0.416848 0.755815 0.49113
123 4 0.400141 0.75567 0.494819
124 1 0.426258 0.764148 0.474804
125 3 0.43874 0.764945 0.48595
126 4 0.42933 0.767118 0.463579
127 1 0.432595 0.779291 0.498273
128 3 0.419152 0.784798 0.505887
129 4 0.4365 0.790233 0.497017
130 1 0.421073 0.773422 0.523391
131 3 0.421585 0.77719 0.541915
132 4 0.419408 0.762553 0.525667
133 1 0.43874 0.783566 0.540973
134 3 0.435156 0.790667 0.558163
135 4 0.447574 0.785885 0.536342
136 1 0.427282 0.806971 0.55
137 3 0.419216 0.80755 0.566405
138 4 0.423697 0.814724 0.543014
139 1 0.408654 0.791899 0.561303
140 3 0.407886 0.782262 0.576374
141 4 0.402253 0.787697 0.553218
142 1 0.422929 0.771973 0.572606
143 3 0.427922 0.773495 0.590502
144 4 0.42933 0.765089 0.566484
145 1 0.431443 0.793348 0.588933
146 3 0.424273 0.796392 0.605495
147 4 0.435604 0.802985 0.585008
148 1 0.408654 0.797623 0.597881
149 3 0.403662 0.787769 0.612794
150 4 0.401677 0.801319 0.589953
151 1 0.40667 0.769799 0.603611
152 3 0.410127 0.76451 0.620958
153 4 0.407246 0.761539 0.595761
154 1 0.42677 0.771828 0.621507
155 3 0.424081 0.775813 0.640267
156 4 0.436052 0.775524 0.617896
157 1 0.416336 0.793276 0.636264
158 3 0.406478 0.789653 0.650549
159 4 0.415632 0.802985 0.630769
160 1 0.394892 0.780016 0.636892
161 3 0.393932 0.770306 0.652276
162 4 0.390475 0.776176 0.626138
163 1 0.40443 0.756177 0.64741
164 3 0.406542 0.753496 0.665934
165 4 0.40891 0.747989 0.641523
166 1 0.415888 0.768495 0.67033
167 3 0.408526 0.772698 0.685322
168 4 0.424722 0.774147 0.67135
169 1 0.39566 0.783784 0.674647
170 3 0.385546 0.778132 0.686499
171 5 0.403597 0.728158 0.635232
172 1 0.383626 0.760162 0.675667
173 3 0.380681 0.754655 0.692857
174 4 0.382729 0.752482 0.667268
175 1 0.398925 0.752554 0.697802
176 3 0.3979 0.756322 0.715856
177 4 0.408462 0.749728 0.695997
178 1 0.395724 0.7769 0.712245
179 3 0.384138 0.779799 0.725039
180 4 0.399501 0.786537 0.707614
181 1 0.370503 0.777263 0.709812
182 3 0.361797 0.775958 0.724882
183 4 0.364934 0.775379 0.700392
184 1 0.364806 0.758206 0.730455
185 3 0.364038 0.762409 0.747959
186 4 0.366086 0.747482 0.729121
187 1 0.381577 0.76835 0.749451
188 3 0.376968 0.780741 0.761303
189 4 0.391051 0.769292 0.746546
190 1 0.372744 0.79429 0.744663
191 3 0.361669 0.79929 0.756358
192 4 0.371975 0.798928 0.733046
193 1 0.349891 0.787044 0.748587
194 3 0.344194 0.789001 0.765699
195 4 0.34477 0.779943 0.741837
196 1 0.354308 0.77364 0.774097
197 3 0.354116 0.781827 0.790424
198 4 0.360453 0.765307 0.775196
199 1 0.367623 0.79545 0.783674
200 3 0.361989 0.808347 0.794663
201 4 0.374792 0.79958 0.77763
202 1 0.346306 0.810666 0.783438
203 3 0.338433 0.810956 0.799215
204 4 0.339777 0.812188 0.77394
205 1 0.335488 0.791682 0.800079
206 3 0.336193 0.791827 0.818289
207 4 0.332032 0.782045 0.797331
208 1 0.353412 0.789508 0.818838
209 3 0.358917 0.805014 0.814992
210 4 0.361221 0.782842 0.816955
211 1 0.360901 0.810159 0.835243
212 3 0.375048 0.816535 0.834223
213 5 0.357701 0.75368 0.786811
214 1 0.383306 0.798565 0.835714
215 3 0.380553 0.795884 0.817582
216 4 0.385674 0.78958 0.842072
217 1 0.396556 0.798855 0.810518
218 3 0.401933 0.783566 0.815699
219 4 0.401997 0.807695 0.807457
220 1 0.407886 0.778712 0.796389
221 3 0.40667 0.762553 0.803611
222 4 0.411727 0.777915 0.784851
223 1 0.391627 0.757989 0.794113
224 3 0.390539 0.745816 0.781633
225 4 0.382281 0.760235 0.792936
226 1 0.408654 0.745308 0.777943
227 3 0.421713 0.747699 0.787755
228 4 0.412047 0.750525 0.767582
229 1 0.424785 0.727701 0.792779
230 3 0.435027 0.733787 0.780926
231 4 0.423825 0.716687 0.790581
232 1 0.447446 0.737483 0.795291
233 3 0.455896 0.739512 0.780063
234 4 0.452951 0.738352 0.805495
235 1 0.4598 0.719803 0.778493
236 3 0.460696 0.722411 0.760283
237 4 0.461465 0.708934 0.780298
238 1 0.442197 0.723353 0.75832
239 3 0.443477 0.736396 0.745918
240 4 0.432851 0.719875 0.757771
241 1 0.443605 0.750453 0.762009
242 3 0.452567 0.758423 0.749215
243 4 0.441877 0.755815 0.772841
244 1 0.467994 0.751033 0.757928
245 3 0.473243 0.754728 0.740581
246 4 0.474011 0.745236 0.765228
247 1 0.466394 0.738135 0.731633
248 3 0.463961 0.748931 0.717033
249 4 0.462681 0.728208 0.731397
250 1 0.446998 0.753569 0.72449
251 3 0.447958 0.769075 0.715542
252 4 0.438612 0.751612 0.730926
253 1 0.457368 0.777915 0.729906
254 3 0.466266 0.783566 0.715856
255 4 0.459352 0.782914 0.74011
256 1 0.477916 0.768567 0.716013
257 3 0.479772 0.77277 0.697724
258 4 0.484701 0.760235 0.719623
259 1 0.464921 0.762843 0.691052
260 3 0.464153 0.775668 0.678885
261 4 0.456728 0.755887 0.690738
262 1 0.455575 0.788421 0.69325
263 3 0.463833 0.800377 0.683595
264 4 0.450134 0.791319 0.703218
265 1 0.47862 0.798348 0.695683
266 3 0.487454 0.801174 0.680298
267 4 0.485533 0.797261 0.704867
268 1 0.486429 0.782262 0.672371
269 3 0.486557 0.789001 0.65471
270 4 0.486749 0.771104 0.673469
271 1 0.468506 0.789436 0.652983
272 3 0.469786 0.805376 0.643485
273 4 0.458968 0.786755 0.653297
274 1 0.471707 0.815666 0.662166
275 3 0.48214 0.824505 0.651727
276 4 0.470426 0.819578 0.673469
277 1 0.496287 0.813999 0.657928
278 3 0.500512 0.817912 0.639796
279 4 0.503201 0.80784 0.66303
280 1 0.491614 0.802768 0.630455
281 3 0.490782 0.813782 0.615385
282 4 0.486429 0.792986 0.62865
283 1 0.475739 0.823201 0.623391
284 3 0.482205 0.835737 0.613815
285 4 0.467482 0.825665 0.629513
286 1 0.492895 0.840881 0.629827
287 3 0.503265 0.844721 0.616798
288 4 0.496031 0.8432 0.641287
289 1 0.511522 0.827476 0.615777
290 3 0.513827 0.832983 0.598195
291 4 0.515747 0.817694 0.619859
292 1 0.499104 0.823636 0.590031
293 3 0.499104 0.836968 0.578179
294 4 0.490846 0.816535 0.588776
295 1 0.492126 0.850663 0.591209
296 3 0.5016 0.862184 0.582182
297 4 0.486942 0.85559 0.600079
298 1 0.515683 0.857184 0.593171
299 3 0.522148 0.858126 0.575824
300 4 0.522084 0.854938 0.602119
301 1 0.521956 0.838418 0.573155
302 3 0.5233 0.843345 0.554239
303 4 0.519524 0.827694 0.575118
304 1 0.506593 0.846968 0.550706
305 3 0.512482 0.86001 0.540424
306 4 0.496927 0.846243 0.549686
307 1 0.513955 0.872545 0.5573
308 3 0.526117 0.879357 0.548273
309 4 0.513571 0.87798 0.568132
310 1 0.537639 0.864792 0.553454
311 3 0.543592 0.86443 0.536421
312 4 0.54276 0.857619 0.561303
313 1 0.53175 0.85204 0.528336
314 3 0.534951 0.860952 0.512323
315 4 0.526373 0.842258 0.52708
316 1 0.522276 0.874502 0.515071
317 3 0.531174 0.88624 0.5073
318 4 0.513763 0.879574 0.517896
319 1 0.540584 0.889283 0.525746
320 3 0.552618 0.892327 0.514443
321 4 0.542696 0.891602 0.537912
322 1 0.558187 0.873777 0.512794
323 3 0.561196 0.875082 0.494427
324 4 0.562924 0.864575 0.516248
325 1 0.544232 0.870951 0.487755
326 3 0.548137 0.880009 0.472763
327 4 0.535143 0.866314 0.48697
328 1 0.544232 0.897471 0.481947
329 3 0.554794 0.905297 0.471115
330 4 0.539047 0.905079 0.487755
331 1 0.569197 0.900442 0.483517
332 3 0.569069 0.892037 0.466719
333 4 0.57515 0.895805 0.49168
334 1 0.583408 0.902398 0.45887
335 3 0.577711 0.894428 0.44427
336 4 0.590001 0.894428 0.459419
337 1 0.567789 0.909862 0.435871
338 3 0.555115 0.902688 0.429906
339 4 0.566317 0.920223 0.432575
340 1 0.549609 0.895153 0.44898
341 3 0.553066 0.882182 0.435793
342 4 0.540904 0.899862 0.445447
343 1 0.550378 0.866966 0.449294
344 3 0.535399 0.867328 0.442622
345 4 0.55025 0.85972 0.458713
346 1 0.539304 0.854141 0.42606
347 3 0.550826 0.842258 0.4219
348 4 0.536679 0.861097 0.416562
349 1 0.539111 0.828708 0.414286
350 3 0.525733 0.82552 0.406515
351 4 0.541224 0.820883 0.423077
352 1 0.532582 0.815086 0.388854
353 3 0.520164 0.805087 0.388462
354 4 0.539239 0.810449 0.381005
355 1 0.525669 0.792841 0.405024
356 3 0.524453 0.804 0.418603
357 4 0.530982 0.783566 0.406201
358 1 0.510818 0.795667 0.428179
359 3 0.503649 0.780885 0.429121
360 4 0.502817 0.801391 0.425118
361 1 0.508194 0.777842 0.450157
362 3 0.505185 0.785668 0.46617
363 4 0.516707 0.77306 0.455024
364 1 0.489438 0.775813 0.468681
365 3 0.493279 0.773495 0.486813
366 4 0.481372 0.771248 0.464364
367 1 0.501984 0.75596 0.483988
368 3 0.507297 0.761829 0.499843
369 4 0.506849 0.747265 0.479199
370 1 0.520612 0.772843 0.489639
371 3 0.520484 0.78132 0.506201
372 4 0.527205 0.775886 0.481868
373 1 0.505313 0.791827 0.502355
374 3 0.502304 0.789073 0.521507
375 4 0.497183 0.79545 0.496782
376 1 0.494815 0.771466 0.519388
377 3 0.499936 0.768495 0.537206
378 4 0.48995 0.762409 0.5146
379 1 0.516003 0.760597 0.53022
380 3 0.525541 0.765379 0.542779
381 4 0.520804 0.753569 0.523077
382 1 0.522404 0.785885 0.539717
383 3 0.519588 0.787189 0.558948
384 4 0.521444 0.796029 0.534929
385 1 0.502176 0.783277 0.558399
386 3 0.506849 0.775958 0.57449
387 4 0.493023 0.782552 0.555573
388 1 0.509026 0.757626 0.565306
389 3 0.518371 0.754293 0.580455
390 4 0.507617 0.748931 0.558713
391 1 0.531686 0.763785 0.571429
392 3 0.534503 0.769147 0.58909
393 4 0.538535 0.766394 0.563344
394 1 0.526501 0.786682 0.588226
395 3 0.524645 0.783204 0.60675
396 4 0.52234 0.795522 0.584694
397 1 0.51101 0.76922 0.603454
398 3 0.516835 0.761539 0.61876
399 4 0.503009 0.764727 0.598038
400 1 0.528293 0.749294 0.607692
401 3 0.536167 0.749583 0.623626
402 4 0.53335 0.744366 0.599058
403 1 0.543272 0.768205 0.619545
404 3 0.541992 0.775741 0.636421
405 4 0.549546 0.775016 0.614286
406 1 0.523941 0.780016 0.633909
407 3 0.524069 0.777697 0.652747
408 4 0.514851 0.782987 0.629906
409 1 0.522404 0.757626 0.652041
410 3 0.531238 0.758786 0.66719
411 4 0.521124 0.746613 0.649608
412 1 0.546729 0.759872 0.655887
413 3 0.551274 0.769509 0.670565
414 5 0.537959 0.692758 0.616227
415 1 0.545769 0.787117 0.661931
416 3 0.544232 0.791102 0.679827
417 4 0.542888 0.795087 0.654239
418 1 0.527397 0.781755 0.68179
419 3 0.530278 0.779364 0.699686
420 4 0.518307 0.7769 0.679121
421 1 0.538151 0.761684 0.698038
422 3 0.54276 0.761611 0.715385
423 4 0.541416 0.751902 0.693642
424 1 0.553834 0.77748 0.715699
425 3 0.550954 0.782842 0.732418
426 4 0.559083 0.78545 0.710126
427 1 0.53271 0.78661 0.728101
428 3 0.529702 0.779654 0.74427
429 4 0.525413 0.792914 0.723469
430 1 0.527141 0.761394 0.739168
431 3 0.534951 0.757771 0.753532
432 4 0.52266 0.753061 0.73281
433 1 0.550186 0.752409 0.741444
434 3 0.557483 0.754003 0.758163
435 4 0.555563 0.750525 0.732025
436 1 0.556011 0.774437 0.758713
437 3 0.553898 0.77364 0.777708
438 4 0.555307 0.785016 0.754082
439 1 0.536487 0.768205 0.775824
440 3 0.536551 0.755815 0.789011
441 5 0.542248 0.70835 0.733419
442 1 0.543848 0.741975 0.777002
443 3 0.553706 0.735816 0.79011
444 4 0.544489 0.734295 0.768132
445 1 0.565549 0.749946 0.786656
446 3 0.568109 0.753134 0.804239
447 4 0.571694 0.756902 0.780534
448 1 0.555755 0.768133 0.806907
449 3 0.540392 0.770886 0.804867
450 4 0.559915 0.778349 0.805181
451 1 0.536679 0.761901 0.823312
452 3 0.524389 0.770379 0.829435
453 4 0.536487 0.752844 0.830141
454 1 0.532774 0.788856 0.830455
455 3 0.529446 0.802985 0.819231
456 4 0.537575 0.79516 0.838226
457 1 0.532198 0.79458 0.800628
458 3 0.524645 0.782045 0.792622
459 4 0.54084 0.795522 0.795291
460 1 0.515235 0.792624 0.779278
461 3 0.49968 0.792044 0.782418
462 4 0.519332 0.787189 0.771036
463 1 0.50064 0.771828 0.789403
464 3 0.491998 0.767915 0.804396
465 4 0.50288 0.761394 0.787049
466 1 0.503969 0.779219 0.818289
467 3 0.48899 0.784726 0.819309
468 4 0.510178 0.78661 0.82237
469 1 0.485341 0.776031 0.83854
470 3 0.470362 0.776248 0.836107
471 4 0.484317 0.786682 0.843014
472 1 0.470618 0.763785 0.817582
473 3 0.459736 0.772335 0.807457
474 5 0.477852 0.692949 0.765655
475 1 0.472347 0.78603 0.798352
476 3 0.471707 0.77748 0.78179
477 4 0.480476 0.790812 0.794506
478 1 0.455575 0.785523 0.777159
479 3 0.451607 0.797696 0.764835
480 4 0.446934 0.78103 0.778885
481 1 0.458072 0.813709 0.777002
482 3 0.464729 0.820448 0.762245
483 4 0.459224 0.820738 0.786656
484 1 0.479644 0.807768 0.763108
485 3 0.488286 0.821462 0.760754
486 4 0.482269 0.797116 0.762794
487 1 0.498784 0.816752 0.778179
488 3 0.489374 0.829578 0.784929
489 4 0.505441 0.817549 0.769466
490 1 0.501344 0.838852 0.796703
491 3 0.505889 0.848996 0.782025
492 4 0.507105 0.83878 0.806358
493 1 0.497119 0.864865 0.790345
494 3 0.505505 0.873777 0.776845
495 4 0.492831 0.872545 0.79741
496 1 0.520356 0.875299 0.787991
497 3 0.526757 0.876458 0.771272
498 4 0.526309 0.875879 0.797331
499 1 0.529894 0.856025 0.769623
500 3 0.527397 0.857257 0.750471
501 4 0.529702 0.845591 0.773312
502 1 0.509474 0.857547 0.753454
503 3 0.506913 0.86885 0.739168
504 4 0.501344 0.853489 0.757535
505 1 0.512482 0.885081 0.750628
506 3 0.517027 0.890298 0.733674
507 4 0.514147 0.892544 0.759576
508 1 0.532582 0.879429 0.7354
509 3 0.52983 0.877762 0.716562
510 4 0.540456 0.873705 0.739247
511 1 0.518691 0.862401 0.71821
512 3 0.513442 0.870299 0.703375
513 5 0.5233 0.78501 0.669311
514 1 0.501984 0.883052 0.713658
515 3 0.504801 0.893486 0.698823
516 4 0.496607 0.887762 0.722606
517 1 0.52074 0.900587 0.706201
518 3 0.525541 0.902253 0.688697
519 4 0.528741 0.90392 0.712716
520 1 0.529126 0.883632 0.685243
521 3 0.523556 0.886313 0.667111
522 4 0.534247 0.87414 0.685165
523 1 0.507297 0.879791 0.672135
524 3 0.502304 0.892544 0.660283
525 4 0.499424 0.873922 0.676845
526 1 0.503585 0.90747 0.673626
527 3 0.50813 0.915731 0.657928
528 4 0.504801 0.913702 0.683752
529 1 0.525733 0.91276 0.660518
530 3 0.523813 0.913267 0.641601
531 4 0.534439 0.909499 0.665856
532 1 0.526245 0.893341 0.638226
533 3 0.517475 0.897036 0.624647
534 4 0.532838 0.885081 0.639403
535 1 0.505569 0.882472 0.627473
536 3 0.495135 0.891457 0.617975
537 4 0.5016 0.873487 0.632104
538 1 0.490718 0.903848 0.634772
539 3 0.491358 0.917542 0.622214
540 4 0.486621 0.906094 0.645683
541 1 0.506017 0.924788 0.629906
542 3 0.508898 0.927759 0.612088
543 4 0.510306 0.931237 0.638069
544 1 0.525797 0.922397 0.612245
545 3 0.523813 0.919571 0.593171
546 4 0.535143 0.919716 0.614678
547 1 0.517027 0.901746 0.593956
548 3 0.50845 0.903485 0.577944
549 4 0.515427 0.89124 0.597017
550 1 0.495455 0.912977 0.588383
551 3 0.495711 0.922977 0.571978
552 4 0.488798 0.916238 0.596468
553 1 0.506785 0.936599 0.581397
554 3 0.512098 0.939425 0.564835
555 4 0.511522 0.9437 0.589482
556 1 0.521956 0.923411 0.564364
557 3 0.518628 0.922904 0.54686
558 4 0.527909 0.914861 0.566641
559 1 0.503905 0.912108 0.548273
560 3 0.499616 0.922469 0.53281
561 4 0.496607 0.905442 0.552041
562 1 0.493023 0.937178 0.544584
563 3 0.497055 0.946743 0.529906
564 4 0.48963 0.942468 0.554396
565 1 0.513571 0.949569 0.536499
566 3 0.518756 0.948047 0.519309
567 4 0.521636 0.951163 0.543956
568 1 0.518371 0.927469 0.519231
569 3 0.514211 0.930222 0.501727
570 4 0.519332 0.9166 0.522998
571 1 0.496287 0.931382 0.505024
572 3 0.495775 0.94312 0.491523
573 4 0.487389 0.929353 0.509733
574 1 0.50192 0.958699 0.503454
575 3 0.510434 0.964278 0.489403
576 4 0.503393 0.966089 0.51303
577 1 0.524645 0.953047 0.492151
578 3 0.527653 0.949641 0.474097
579 4 0.532198 0.947902 0.49843
580 1 0.514275 0.935657 0.472763
581 3 0.507809 0.948482 0.462402
582 4 0.506081 0.929498 0.474568
583 1 0.515811 0.942033 0.443093
584 3 0.515555 0.926672 0.435793
585 4 0.524837 0.944932 0.439639
586 1 0.503649 0.931961 0.41978
587 3 0.516451 0.937251 0.411617
588 4 0.496415 0.937323 0.414207
589 1 0.517283 0.921672 0.39686
590 3 0.532006 0.926744 0.392936
591 4 0.514211 0.927324 0.387127
592 1 0.538471 0.918412 0.410126
593 3 0.536487 0.902181 0.413736
594 4 0.539944 0.922904 0.420801
595 1 0.552554 0.896529 0.406593
596 3 0.563756 0.905587 0.397959
597 4 0.548073 0.888921 0.399451
598 1 0.575278 0.890008 0.399372
599 3 0.581936 0.878632 0.387127
600 4 0.582448 0.888849 0.407457
601 1 0.567661 0.867763 0.383046
602 3 0.566253 0.876965 0.368132
603 4 0.559147 0.862111 0.384458
604 1 0.575406 0.86385 0.354474
605 3 0.561388 0.860155 0.347881
606 4 0.580335 0.854793 0.350314
607 1 0.5619 0.870372 0.329749
608 3 0.573166 0.875154 0.31821
609 4 0.553834 0.876241 0.332182
610 1 0.562156 0.872763 0.299529
611 3 0.553066 0.88682 0.301962
612 4 0.558635 0.864647 0.291444
613 1 0.564012 0.898486 0.290188
614 3 0.567789 0.898631 0.308634
615 4 0.554987 0.903195 0.287598
616 1 0.57515 0.918919 0.306358
617 3 0.562028 0.919861 0.316641
618 5 0.57099 0.851703 0.289894
619 1 0.573038 0.925802 0.334851
620 3 0.561132 0.916021 0.338619
621 4 0.568365 0.935657 0.3354
622 1 0.569453 0.906384 0.355495
623 3 0.555115 0.902906 0.359262
624 4 0.575727 0.902616 0.363972
625 1 0.553066 0.918846 0.373234
626 3 0.543336 0.931817 0.367268
627 4 0.555051 0.926165 0.382653
628 1 0.535783 0.920948 0.352119
629 3 0.522916 0.923049 0.362009
630 4 0.534247 0.91334 0.343407
631 1 0.516323 0.937613 0.349529
632 3 0.512162 0.936019 0.331868
633 4 0.516835 0.949424 0.349765
634 1 0.49872 0.923701 0.337284
635 3 0.485341 0.915368 0.338148
636 4 0.503649 0.914354 0.33336
637 1 0.480028 0.921817 0.357143
638 3 0.466458 0.918194 0.349529
639 4 0.478108 0.924498 0.36876
640 1 0.464409 0.936744 0.340895
641 3 0.462681 0.941816 0.323548
642 4 0.46044 0.946743 0.343485
643 1 0.476828 0.92957 0.315306
644 3 0.48803 0.941164 0.319231
645 4 0.472795 0.935222 0.305887
646 1 0.500896 0.930078 0.308085
647 3 0.500704 0.944859 0.298038
648 4 0.504929 0.923919 0.299137
649 1 0.510242 0.955293 0.31248
650 3 0.523941 0.955728 0.321978
651 4 0.505825 0.959858 0.322214
652 1 0.521956 0.954496 0.294584
653 3 0.517667 0.970799 0.296389
654 4 0.529958 0.951525 0.288305
655 1 0.509986 0.972538 0.276374
656 3 0.495775 0.97732 0.2719
657 4 0.513699 0.975219 0.265228
658 1 0.487518 0.962611 0.281868
659 3 0.476635 0.963046 0.268917
660 4 0.483037 0.970944 0.287912
661 1 0.485533 0.950438 0.254788
662 3 0.472091 0.953047 0.246232
663 4 0.482525 0.939932 0.256279
664 1 0.476764 0.96877 0.235322
665 3 0.477468 0.958626 0.220958
666 4 0.480796 0.978552 0.231868
667 1 0.460952 0.958409 0.214835
668 3 0.455767 0.974277 0.209341
669 4 0.452375 0.952395 0.216327
670 1 0.460504 0.972031 0.188776
671 3 0.463513 0.960945 0.175432
672 4 0.46857 0.978552 0.188619
673 1 0.453527 0.970147 0.16044
674 3 0.459352 0.976596 0.143878
675 4 0.444053 0.971741 0.157143
676 1 0.47017 0.989494 0.153532
677 3 0.483677 0.983769 0.147645
678 4 0.46889 0.99971 0.157849
679 1 0.49059 0.980654 0.168132
680 3 0.484253 0.965437 0.16617
681 4 0.493599 0.985218 0.178807
682 1 0.496031 0.953844 0.171743
683 3 0.507489 0.9558 0.183752
684 4 0.5 0.948989 0.162166
685 1 0.49936 0.94283 0.198666
686 3 0.509922 0.931454 0.191915
687 4 0.49123 0.937613 0.203768
688 1 0.518628 0.930005 0.211068
689 3 0.510434 0.915731 0.212716
690 4 0.52362 0.933411 0.220644
691 1 0.523236 0.902978 0.207614
692 3 0.53207 0.902181 0.222998
693 4 0.527717 0.897689 0.198587
694 1 0.513699 0.886892 0.218289
695 3 0.503713 0.895805 0.229121
696 4 0.514083 0.876676 0.222684
697 1 0.491038 0.896602 0.212637
698 3 0.479644 0.887399 0.221586
699 4 0.486557 0.895515 0.202198
700 1 0.477532 0.899935 0.237912
701 3 0.468698 0.914499 0.233124
702 4 0.481692 0.903485 0.248038
703 1 0.453527 0.905079 0.238933
704 3 0.455191 0.910804 0.256279
705 4 0.446998 0.896167 0.239403
706 1 0.441045 0.922324 0.256986
707 3 0.43714 0.906529 0.263501
708 4 0.433299 0.927831 0.252512
709 1 0.436564 0.912977 0.284694
710 3 0.422033 0.915079 0.280848
711 5 0.438612 0.835577 0.275941
712 1 0.4164 0.906529 0.299529
713 3 0.406862 0.914354 0.310754
714 4 0.415504 0.896167 0.305024
715 1 0.41736 0.930222 0.315856
716 3 0.406094 0.938845 0.306672
717 4 0.424529 0.937613 0.313187
718 1 0.396236 0.942251 0.323155
719 3 0.399181 0.942323 0.341523
720 4 0.388555 0.936744 0.319388
721 1 0.38721 0.956163 0.34741
722 3 0.399373 0.964713 0.3427
723 5 0.388555 0.880351 0.335487
724 1 0.402189 0.973118 0.361774
725 3 0.406862 0.958481 0.370016
726 4 0.399501 0.982827 0.367818
727 1 0.423569 0.96551 0.373312
728 3 0.422673 0.968118 0.39168
729 4 0.431059 0.971669 0.370644
730 1 0.42581 0.949134 0.39686
731 3 0.435796 0.937903 0.390581
732 4 0.41768 0.943555 0.399529
733 1 0.446934 0.941381 0.407849
734 3 0.442325 0.926962 0.415699
735 4 0.451223 0.946308 0.417504
736 1 0.452311 0.915079 0.403218
737 3 0.462233 0.910586 0.416013
738 4 0.457048 0.912615 0.39325
739 1 0.454039 0.895877 0.424333
740 3 0.441493 0.885226 0.42449
741 4 0.453015 0.899355 0.435636
742 1 0.452439 0.868705 0.427316
743 3 0.453079 0.857547 0.441915
744 4 0.455703 0.861532 0.419309
745 1 0.463513 0.868705 0.454631
746 3 0.461593 0.874212 0.473077
747 4 0.473179 0.870589 0.454317
748 1 0.446614 0.884574 0.468053
749 3 0.448342 0.897978 0.479984
750 4 0.440853 0.879284 0.476138
751 1 0.461785 0.906963 0.469388
752 3 0.45788 0.921527 0.47763
753 4 0.470362 0.908268 0.462951
754 1 0.445718 0.926527 0.462716
755 3 0.435412 0.93399 0.473705
756 4 0.442645 0.93073 0.452355
757 1 0.42965 0.915948 0.48124
758 3 0.430355 0.924353 0.497881
759 4 0.427282 0.905224 0.481633
760 1 0.447894 0.917832 0.502276
761 3 0.448086 0.932686 0.511774
762 4 0.455896 0.91189 0.501334
763 1 0.453463 0.944279 0.493721
764 3 0.446038 0.957322 0.502904
765 4 0.456344 0.947468 0.482732
766 1 0.429714 0.951598 0.496782
767 3 0.424658 0.959133 0.511931
768 4 0.422289 0.947178 0.490267
769 1 0.426514 0.944424 0.526217
770 3 0.432915 0.944787 0.543407
771 4 0.421713 0.934932 0.528414
772 1 0.449878 0.948844 0.535086
773 3 0.452183 0.955221 0.552198
774 4 0.45724 0.951163 0.526923
775 1 0.443413 0.972973 0.548744
776 3 0.438612 0.973698 0.566248
777 5 0.445333 0.905647 0.517712
778 1 0.422865 0.964133 0.56248
779 3 0.426386 0.958047 0.579906
780 4 0.414736 0.960438 0.557849
781 1 0.434259 0.940512 0.572763
782 3 0.441877 0.943048 0.588697
783 4 0.436692 0.931672 0.565542
784 1 0.453975 0.954206 0.581633
785 3 0.453719 0.961307 0.599215
786 4 0.460248 0.959206 0.57394
787 1 0.441941 0.975292 0.594976
788 3 0.437652 0.972828 0.611931
789 4 0.43682 0.983842 0.589717
790 1 0.427666 0.95667 0.607849
791 3 0.431827 0.951453 0.624882
792 4 0.422673 0.947975 0.601648
793 1 0.448598 0.94399 0.617504
794 3 0.454423 0.948699 0.633909
795 4 0.454935 0.939352 0.609498
796 1 0.45724 0.967756 0.628179
797 3 0.454103 0.971162 0.646154
798 4 0.458008 0.976958 0.62135
799 1 0.436628 0.971741 0.64325
800 3 0.435732 0.96551 0.660989
801 4 0.427794 0.972031 0.638305
802 1 0.439636 0.946018 0.654239
803 3 0.447894 0.940801 0.668917
804 4 0.438036 0.936961 0.647567
805 1 0.463705 0.948337 0.659812
806 3 0.468122 0.953554 0.677473
807 4 0.470618 0.95138 0.651334
808 1 0.460888 0.971379 0.676609
809 3 0.463129 0.971741 0.695604
810 4 0.455191 0.980364 0.673391
811 1 0.45007 0.961597 0.702512
812 3 0.4582 0.953482 0.714443
813 4 0.440917 0.958554 0.70314
814 1 0.465177 0.939352 0.701099
815 3 0.477404 0.942395 0.71146
816 4 0.46665 0.931164 0.692543
817 1 0.483485 0.957829 0.697567
818 3 0.491998 0.96464 0.711146
819 4 0.483997 0.963771 0.687755
820 1 0.478364 0.974567 0.720801
821 3 0.484701 0.968843 0.736813
822 4 0.470362 0.980581 0.721978
823 1 0.475803 0.951525 0.736578
824 3 0.487774 0.945729 0.746625
825 4 0.46825 0.944424 0.735479
826 1 0.497824 0.942468 0.728885
827 3 0.509858 0.948844 0.737206
828 4 0.500064 0.938845 0.717818
829 1 0.508066 0.967466 0.73383
830 3 0.513699 0.969495 0.751413
831 4 0.506593 0.977828 0.729042
832 1 0.498464 0.968481 0.761382
833 3 0.504993 0.96109 0.776217
834 4 0.48899 0.969495 0.764207
835 1 0.508066 0.943555 0.766562
836 3 0.5217 0.941743 0.774568
837 4 0.505761 0.934135 0.75989
838 1 0.530982 0.950293 0.758085
839 3 0.540264 0.954713 0.772371
840 4 0.533926 0.953554 0.747488
841 1 0.530982 0.972683 0.777002
842 3 0.535719 0.97022 0.794663
843 4 0.526437 0.982103 0.775039
844 1 0.521316 0.958844 0.800157
845 3 0.527717 0.946815 0.811303
846 4 0.512226 0.954931 0.800079
847 1 0.535847 0.937106 0.79427
848 3 0.536167 0.920368 0.799765
849 4 0.544104 0.939062 0.800785
850 1 0.517603 0.918194 0.794976
851 3 0.509218 0.929933 0.786028
852 4 0.516323 0.91631 0.806358
853 1 0.494175 0.919136 0.785322
854 3 0.489886 0.923339 0.802276
855 4 0.488094 0.910731 0.782104
856 1 0.481564 0.940584 0.79584
857 3 0.468634 0.932976 0.789874
858 4 0.482781 0.951235 0.790816
859 1 0.460824 0.935295 0.810283
860 3 0.453399 0.947902 0.800314
861 4 0.46076 0.936889 0.82237
862 1 0.439572 0.934425 0.795997
863 3 0.432595 0.948772 0.792229
864 4 0.433555 0.925368 0.794898
865 1 0.428434 0.954061 0.813422
866 3 0.429907 0.971669 0.811146
867 4 0.425938 0.952322 0.824882
868 1 0.44815 0.971741 0.813265
869 3 0.447318 0.984277 0.799137
870 4 0.457304 0.96906 0.815934
871 1 0.446486 0.971451 0.78336
872 3 0.435348 0.981306 0.776452
873 4 0.449686 0.964133 0.775432
874 1 0.421841 0.970147 0.787598
875 3 0.417872 0.961452 0.7719
876 5 0.431443 0.896718 0.746198
877 1 0.404814 0.97406 0.766562
878 3 0.404494 0.967104 0.749451
879 4 0.399373 0.983335 0.767033
880 1 0.421329 0.973045 0.743407
881 3 0.422545 0.959133 0.733203
882 4 0.429907 0.97877 0.743093
883 1 0.426258 0.94754 0.751334
884 3 0.417168 0.934787 0.744976
885 4 0.430227 0.944714 0.762088
886 1 0.401741 0.941816 0.75157
887 3 0.397516 0.935077 0.735165
888 4 0.394572 0.946163 0.758085
889 1 0.401293 0.951743 0.724097
890 3 0.403918 0.940439 0.710361
891 4 0.403085 0.962322 0.719623
892 1 0.421521 0.936744 0.717033
893 3 0.418768 0.920875 0.709498
894 4 0.430739 0.937396 0.722135
895 1 0.411343 0.913267 0.728101
896 3 0.404046 0.903123 0.714914
897 4 0.407694 0.911238 0.738933
898 1 0.390923 0.917397 0.712323
899 3 0.390155 0.910514 0.694976
900 4 0.384394 0.925947 0.714286
901 1 0.401805 0.923122 0.685636
902 3 0.405006 0.909065 0.67551
903 4 0.406926 0.931744 0.682889
904 1 0.416144 0.89979 0.689403
905 3 0.411919 0.886313 0.679984
906 5 0.412175 0.824564 0.647725
907 1 0.397516 0.883124 0.692465
908 3 0.389899 0.877835 0.67708
909 4 0.392139 0.881385 0.702747
910 1 0.384394 0.896819 0.6719
911 3 0.385162 0.89066 0.655416
912 4 0.381321 0.907036 0.673548
913 1 0.402381 0.897254 0.651884
914 3 0.403662 0.884139 0.639953
915 4 0.411279 0.902398 0.651491
916 1 0.405198 0.870372 0.655573
917 3 0.398348 0.8603 0.6427