LAMMPS protain data file

        8634  atoms
       11502  bonds
           0  angles
           0  dihedrals
           0  impropers

           5  atom types
           5  bond types
           0  angle types
           0  dihedral types
           0  improper types

-200.0	200.0	xlo xhi
-200.0	200.0	ylo yhi
-200.0	200.0	zlo zhi

Masses

           1	27.0
           2	14.0
           3	28.0
           4	60.0
           5	60.0

Atoms

           1	1	1	1	0.0	80.4	133.67	108.75
           2	1	1	3	0.0	78.92	135.01	107.35
           3	1	1	4	0.0	80.01	132.41	109.67
           4	1	2	1	0.0	77.86	132.8	106.05001
           5	1	2	3	0.0	76.82	130.93	106.92
           6	1	2	4	0.0	78.53	132.28	104.729996
           7	1	3	1	0.0	74.12	131.89	106.59
           8	1	3	3	0.0	74.01	130.74	104.47001
           9	1	3	4	0.0	73.01	132.95	106.380005
          10	1	4	1	0.0	72.79	128.41	105.51
          11	1	4	3	0.0	72.28	128.14	103.12
          12	1	4	4	0.0	71.87	127.49	106.42
          13	1	5	1	0.0	70.23	130.14	103.06
          14	1	5	3	0.0	70.89	130.69	100.85999
          15	1	5	4	0.0	68.93	131.0	103.46001
          16	1	6	1	0.0	73.02	132.3	101.62999
          17	1	6	3	0.0	74.55	131.37	99.96999
          18	1	6	4	0.0	73.6	133.48	102.31999
          19	1	7	1	0.0	75.3	129.07	101.53
          20	1	7	3	0.0	75.09	127.96	99.36
          21	1	7	4	0.0	75.6	128.02	102.62
          22	1	8	1	0.0	72.41	127.42	99.5
          23	1	8	3	0.0	72.46	127.74	97.10999
          24	1	8	4	0.0	71.05	126.97	100.0
          25	1	9	1	0.0	72.33	130.43	97.14
          26	1	9	3	0.0	73.91	130.28	95.35
          27	1	9	4	0.0	71.88	131.92	97.41
          28	1	10	1	0.0	76.26	130.44	96.89
          29	1	10	3	0.0	76.99	129.27	94.93
          30	1	10	4	0.0	77.26	130.5	98.18
          31	1	11	1	0.0	75.94	126.83	95.84
          32	1	11	3	0.0	75.64	126.34	93.59
          33	1	11	4	0.0	75.31	125.74	96.79001
          34	1	12	1	0.0	73.26	127.81	93.240005
          35	1	12	3	0.0	74.15	128.16	91.05
          36	1	12	4	0.0	71.95	128.48	93.52
          37	1	13	1	0.0	75.48	130.61	91.78001
          38	1	13	3	0.0	76.92	129.98	90.01
          39	1	13	4	0.0	76.04	131.84	92.58
          40	1	14	1	0.0	78.31	128.09	91.63
          41	1	14	3	0.0	78.36	127.16	89.4
          42	1	14	4	0.0	78.88	127.22	92.729996
          43	1	15	1	0.0	76.24	125.46	89.89
          44	1	15	3	0.0	76.02	125.42999	87.48
          45	1	15	4	0.0	74.97	124.77	90.43
          46	1	16	1	0.0	74.61	127.93	87.399994
          47	1	16	3	0.0	75.79	128.14	85.27
          48	1	16	4	0.0	73.88	129.28	87.87
          49	1	17	1	0.0	78.17	129.05	86.34
          50	1	17	3	0.0	79.28	127.82	84.68
          51	1	17	4	0.0	79.18	129.78	87.270004
          52	1	18	1	0.0	79.12	125.37	85.85
          53	1	18	3	0.0	78.79	124.53	83.7
          54	1	18	4	0.0	79.24	124.26	86.97
          55	1	19	1	0.0	76.09	125.01	83.7
          56	1	19	3	0.0	76.25	125.560005	81.45
          57	1	19	4	0.0	74.64	125.01	84.12
          58	1	20	1	0.0	77.01	128.23	81.96
          59	1	20	3	0.0	78.54	128.08	80.16
          60	1	20	4	0.0	77.04	129.61	82.69
          61	1	21	1	0.0	80.66	126.97	81.5
          62	1	21	3	0.0	81.24	125.54	79.72
          63	1	21	4	0.0	81.8	126.98	82.54
          64	1	22	1	0.0	79.36	123.54	80.38
          65	1	22	3	0.0	78.96	123.42	78.01
          66	1	22	4	0.0	78.61	122.37001	81.12
          67	1	23	1	0.0	77.07	125.34	77.85
          68	1	23	3	0.0	77.96	125.36001	75.59
          69	1	23	4	0.0	76.12	126.50001	78.14
          70	1	24	1	0.0	80.34	126.85	76.48
          71	1	24	3	0.0	81.39	125.68001	74.63
          72	1	24	5	0.0	79.18	119.91306204	71.27005732
          73	1	25	1	0.0	81.95	123.31	76.17
          74	1	25	3	0.0	81.53	122.28	74.09
          75	1	25	4	0.0	82.08	122.25001	77.34
          76	1	26	1	0.0	78.77	121.94999	74.5
          77	1	26	3	0.0	78.51	121.87999	72.13
          78	1	26	4	0.0	77.47	121.99	75.26
          79	1	27	1	0.0	78.68	124.62	71.9
          80	1	27	3	0.0	79.69	124.19	69.69
          81	1	27	4	0.0	78.77	126.1	72.18
          82	1	28	1	0.0	82.14	123.58001	70.55
          83	1	28	3	0.0	82.11	121.80001	68.91
          84	1	28	4	0.0	83.5	123.51	71.33
          85	1	29	1	0.0	81.08	119.96	70.77
          86	1	29	3	0.0	80.29	118.99	68.79
          87	1	29	4	0.0	80.68	119.14001	72.01
          88	1	30	1	0.0	77.83	120.37	68.92
          89	1	30	3	0.0	77.49	120.729996	66.61
          90	1	30	4	0.0	76.49	120.81	69.54
          91	1	31	1	0.0	79.53	122.66	66.33
          92	1	31	3	0.0	80.24	121.67	64.28
          93	1	31	4	0.0	80.25	123.99	66.48
          94	1	32	1	0.0	82.14	120.06	65.43
          95	1	32	3	0.0	80.66	118.25001	65.06
          96	1	32	4	0.0	83.19	119.5	66.38
          97	1	33	1	0.0	81.29	118.130005	62.17
          98	1	33	3	0.0	82.98	116.51	62.72
          99	1	33	4	0.0	81.59	118.69001	60.73
         100	1	34	1	0.0	81.71	114.3	61.92
         101	1	34	3	0.0	82.05	112.57	60.360004
         102	1	34	4	0.0	80.61	113.49999	62.580006
         103	1	35	1	0.0	83.13	114.22	58.460003
         104	1	35	3	0.0	85.06	113.32	59.570004
         105	1	35	4	0.0	83.26	115.37	57.43
         106	1	36	1	0.0	85.43	111.29	57.570004
         107	1	36	3	0.0	87.24	112.85999	57.36
         108	1	36	4	0.0	85.42	110.38999	56.300003
         109	1	37	1	0.0	89.08	110.91	58.7
         110	1	37	3	0.0	90.21	112.21999	60.34
         111	1	37	4	0.0	90.05001	111.46001	57.59
         112	1	38	1	0.0	87.91	111.81	62.25
         113	1	38	3	0.0	89.46	112.52	63.94
         114	1	38	4	0.0	86.55	111.270004	62.76
         115	1	39	1	0.0	90.53	109.99	64.39
         116	1	39	3	0.0	92.659996	110.94001	65.18
         117	1	39	4	0.0	90.87	108.41999	64.37
         118	1	40	1	0.0	93.2	112.36	62.840004
         119	1	40	3	0.0	93.69	114.700005	62.529995
         120	1	40	4	0.0	93.84	111.94	61.470005
         121	1	41	1	0.0	91.16	115.62	63.01
         122	1	41	3	0.0	91.24	116.24	65.34
         123	1	41	4	0.0	89.66	115.64	62.54
         124	1	42	1	0.0	92.2	118.86	64.92
         125	1	42	3	0.0	90.9	119.47	66.89
         126	1	42	4	0.0	92.72001	120.13	64.21
         127	1	43	1	0.0	88.48	119.43	65.58
         128	1	43	3	0.0	87.46001	118.74	67.66
         129	1	43	4	0.0	87.38	119.77	64.62
         130	1	44	1	0.0	88.07	115.93	67.08
         131	1	44	3	0.0	88.28999	115.63	69.47
         132	1	44	4	0.0	88.28999	114.69001	66.22
         133	1	45	1	0.0	90.9	116.75	69.6
         134	1	45	3	0.0	90.17	117.77	71.64
         135	1	45	4	0.0	92.32	117.15	69.26
         136	1	46	1	0.0	89.12	120.14	70.4
         137	1	46	3	0.0	87.399994	120.18	72.19
         138	1	46	4	0.0	88.920006	121.25	69.4
         139	1	47	1	0.0	85.85	118.18	70.84
         140	1	47	3	0.0	85.5	117.26	73.0
         141	1	47	4	0.0	85.26	117.35	69.64
         142	1	48	1	0.0	87.69	115.83001	73.07
         143	1	48	3	0.0	88.07	115.83001	75.42
         144	1	48	4	0.0	88.83	114.81	72.7
         145	1	49	1	0.0	88.979996	118.56	75.24
         146	1	49	3	0.0	87.52999	119.31	77.08
         147	1	49	4	0.0	89.84	119.77	74.6
         148	1	50	1	0.0	85.55	120.07	75.3
         149	1	50	3	0.0	84.41	119.38	77.31
         150	1	50	4	0.0	84.79	120.48	74.04
         151	1	51	1	0.0	84.16	116.68	76.42
         152	1	51	3	0.0	83.96	116.31	78.79
         153	1	51	4	0.0	84.31	115.399994	75.53
         154	1	52	1	0.0	86.76999	116.26	79.07
         155	1	52	3	0.0	86.53	117.02	81.38
         156	1	52	4	0.0	88.28	116.0	78.79
         157	1	53	1	0.0	86.130005	119.84	80.49
         158	1	53	3	0.0	84.43	119.88	82.27
         159	1	53	4	0.0	86.46	121.05	79.69
         160	1	54	1	0.0	82.45	118.89001	80.64
         161	1	54	3	0.0	81.72	117.85	82.65
         162	1	54	4	0.0	81.72	118.67	79.4
         163	1	55	1	0.0	83.42	115.52999	82.4
         164	1	55	3	0.0	83.37	115.63	84.83
         165	1	55	4	0.0	84.19	114.34	81.75
         166	1	56	1	0.0	85.34	117.42999	84.99
         167	1	56	3	0.0	84.03	118.15	86.93
         168	1	56	4	0.0	86.54	118.29	84.6
         169	1	57	1	0.0	82.35	119.86	85.53
         170	1	57	3	0.0	80.7	119.41	87.17
         171	1	57	5	0.0	83.53	113.4757648	80.14018928
         172	1	58	1	0.0	80.13	116.85	86.17
         173	1	58	3	0.0	79.84	116.06	88.28999
         174	1	58	4	0.0	79.82	115.67	85.12
         175	1	59	1	0.0	82.63	115.75	88.84
         176	1	59	3	0.0	82.4	116.58	91.079994
         177	1	59	4	0.0	84.05	115.31	88.61
         178	1	60	1	0.0	82.9	119.35	90.18
         179	1	60	3	0.0	81.49	120.27	91.84
         180	1	60	4	0.0	83.54	120.45	89.38
         181	1	61	1	0.0	79.2	119.92	90.38999
         182	1	61	3	0.0	78.42	120.34	92.56
         183	1	61	4	0.0	78.3	119.64	89.27
         184	1	62	1	0.0	78.14	117.73	93.46
         185	1	62	3	0.0	78.95	118.28	95.66
         186	1	62	4	0.0	77.8	116.18	93.28
         187	1	63	1	0.0	81.6	118.11	95.07
         188	1	63	3	0.0	82.13	119.91	96.659996
         189	1	63	4	0.0	82.88	117.52	94.49
         190	1	64	1	0.0	81.95	121.97	94.86
         191	1	64	3	0.0	81.02	123.1	96.77
         192	1	64	4	0.0	81.87	122.88	93.64
         193	1	65	1	0.0	78.45	122.06999	96.38
         194	1	65	3	0.0	78.28	121.92	98.74
         195	1	65	4	0.0	77.0	121.85	95.75
         196	1	66	1	0.0	79.5	119.5	99.020004
         197	1	66	3	0.0	80.3	120.56	101.07
         198	1	66	4	0.0	80.13	118.130005	98.86
         199	1	67	1	0.0	82.43	121.96	99.81
         200	1	67	3	0.0	82.07	123.72	101.45
         201	1	67	4	0.0	83.62	122.34	98.86
         202	1	68	1	0.0	79.93	124.85999	100.16
         203	1	68	3	0.0	79.3	125.36001	102.46
         204	1	68	4	0.0	79.12	125.65	99.1
         205	1	69	1	0.0	77.39	123.329994	102.66
         206	1	69	3	0.0	77.75	122.88	104.94
         207	1	69	4	0.0	76.04	122.68	102.24
         208	1	70	1	0.0	79.54	120.78	104.41999
         209	1	70	3	0.0	81.4	122.27	103.96999
         210	1	70	4	0.0	79.84	119.39	103.94
         211	1	71	1	0.0	82.09	122.50001	106.759995
         212	1	71	3	0.0	83.73	120.91001	106.17
         213	1	71	5	0.0	81.04	115.82994539	100.50288198
         214	1	72	1	0.0	85.61	122.02	108.07
         215	1	72	3	0.0	86.14	120.55	109.86
         216	1	72	4	0.0	86.27	123.15	108.91001
         217	1	73	1	0.0	85.87	118.14	108.21999
         218	1	73	3	0.0	85.35	116.03001	107.16
         219	1	73	4	0.0	84.79	117.89	109.30999
         220	1	74	1	0.0	86.509995	116.59	104.75
         221	1	74	3	0.0	84.65	115.57	103.62
         222	1	74	4	0.0	87.84	116.7	103.95
         223	1	75	1	0.0	84.26	117.39	101.68001
         224	1	75	3	0.0	84.17	115.29	100.62
         225	1	75	4	0.0	84.28	118.72	101.03
         226	1	76	1	0.0	86.66	115.399994	99.43
         227	1	76	3	0.0	88.88	115.58001	100.26
         228	1	76	4	0.0	86.83999	116.07	97.94999
         229	1	77	1	0.0	89.64	113.08	100.09999
         230	1	77	3	0.0	90.63	114.05001	98.18
         231	1	77	4	0.0	89.38	111.55	99.94
         232	1	78	1	0.0	93.19	114.3	99.37
         233	1	78	3	0.0	93.98	114.73	97.16001
         234	1	78	4	0.0	94.26	114.439995	100.4
         235	1	79	1	0.0	94.17	111.91	96.59
         236	1	79	3	0.0	93.54	112.53999	94.42
         237	1	79	4	0.0	94.58	110.4	96.65
         238	1	80	1	0.0	90.83999	112.78	94.76999
         239	1	80	3	0.0	91.07	114.74	93.37
         240	1	80	4	0.0	89.42999	112.27	95.25
         241	1	81	1	0.0	91.68	116.56	95.41
         242	1	81	3	0.0	92.94	117.619995	93.619995
         243	1	81	4	0.0	91.99	117.2	96.729996
         244	1	82	1	0.0	95.23	115.82	93.74999
         245	1	82	3	0.0	95.52	116.06	91.37
         246	1	82	4	0.0	96.25	114.94001	94.53
         247	1	83	1	0.0	93.49999	114.130005	90.759995
         248	1	83	3	0.0	92.82	115.590004	88.9
         249	1	83	4	0.0	92.71	112.79001	90.83999
         250	1	84	1	0.0	91.18	117.10999	90.49
         251	1	84	3	0.0	92.0	118.81	88.98999
         252	1	84	4	0.0	90.21	117.4	91.590004
         253	1	85	1	0.0	94.17	119.590004	90.71
         254	1	85	3	0.0	95.06	120.04	88.63
         255	1	85	4	0.0	95.03	120.01	91.88
         256	1	86	1	0.0	95.93	117.37	88.03001
         257	1	86	3	0.0	95.49	118.15	85.78
         258	1	86	4	0.0	96.39	115.81	88.05
         259	1	87	1	0.0	92.82	117.59	85.67
         260	1	87	3	0.0	92.84	119.42	84.11
         261	1	87	4	0.0	91.42	116.91001	85.91
         262	1	88	1	0.0	92.350006	121.240005	86.02
         263	1	88	3	0.0	93.59	122.79	84.67
         264	1	88	4	0.0	91.87	121.85	87.37
         265	1	89	1	0.0	96.14	121.86	85.64
         266	1	89	3	0.0	96.88	122.29	83.45
         267	1	89	4	0.0	97.15	121.4	86.65
         268	1	90	1	0.0	96.07	119.55	82.53
         269	1	90	3	0.0	95.95	120.65	80.34
         270	1	90	4	0.0	95.64	118.06999	82.72
         271	1	91	1	0.0	93.25	121.47	80.84
         272	1	91	3	0.0	93.73	123.51	79.58
         273	1	91	4	0.0	91.8	121.47	81.41
         274	1	92	1	0.0	95.05	124.81	81.71
         275	1	92	3	0.0	96.600006	125.23001	79.83
         276	1	92	4	0.0	95.45	125.38	83.12
         277	1	93	1	0.0	98.37001	123.27999	80.33
         278	1	93	3	0.0	98.92	123.82	78.1
         279	1	93	4	0.0	99.2	122.11	80.83
         280	1	94	1	0.0	96.77	122.18	77.01
         281	1	94	3	0.0	96.600006	123.67	75.21
         282	1	94	4	0.0	95.649994	121.04001	77.1
         283	1	95	1	0.0	95.25	125.59	76.75
         284	1	95	3	0.0	96.57	127.15	75.57
         285	1	95	4	0.0	94.21	126.27	77.75
         286	1	96	1	0.0	98.62	127.36	77.49
         287	1	96	3	0.0	99.83001	127.8	75.44
         288	1	96	4	0.0	99.36	127.42	78.83
         289	1	97	1	0.0	100.52	125.17	74.93
         290	1	97	3	0.0	100.350006	125.66	72.55
         291	1	97	4	0.0	100.8	123.66	75.15
         292	1	98	1	0.0	97.69	125.32	72.32
         293	1	98	3	0.0	97.91	127.04	70.67
         294	1	98	4	0.0	96.12	124.82	72.55
         295	1	99	1	0.0	97.65	129.17	72.47
         296	1	99	3	0.0	99.27999	130.41	71.21
         297	1	99	4	0.0	97.14	129.91	73.71
         298	1	100	1	0.0	101.619995	129.08	72.19
         299	1	100	3	0.0	102.38999	129.3	69.87
         300	1	100	4	0.0	102.6	128.25	72.97
         301	1	101	1	0.0	101.08	126.99	69.01
         302	1	101	3	0.0	101.01	128.16	66.9
         303	1	101	4	0.0	100.409996	125.61001	69.12
         304	1	102	1	0.0	98.55	129.45	67.58
         305	1	102	3	0.0	99.270004	131.42	66.37
         306	1	102	4	0.0	97.16001	129.65	68.25
         307	1	103	1	0.0	100.729996	132.39	68.49
         308	1	103	3	0.0	102.28	133.14	66.82
         309	1	103	4	0.0	101.29	132.74	69.9
         310	1	104	1	0.0	103.57	130.5	66.7
         311	1	104	3	0.0	103.79	130.87	64.35
         312	1	104	4	0.0	104.04	129.13	67.31
         313	1	105	1	0.0	101.32	129.85	63.570004
         314	1	105	3	0.0	101.47	131.43	61.71
         315	1	105	4	0.0	99.96999	129.1	63.470005
         316	1	106	1	0.0	100.59	133.59	63.29
         317	1	106	3	0.0	102.11	134.95	62.07
         318	1	106	4	0.0	99.87	134.43	64.35
         319	1	107	1	0.0	104.32	134.57	63.699997
         320	1	107	3	0.0	105.44	135.22	61.639996
         321	1	107	4	0.0	105.14	134.22	64.96
         322	1	108	1	0.0	105.52	132.69	60.57
         323	1	108	3	0.0	105.0	133.06	58.22
         324	1	108	4	0.0	105.83	131.24	60.38
         325	1	109	1	0.0	102.439995	134.12	58.7
         326	1	109	3	0.0	101.41	136.05	57.84
         327	1	109	4	0.0	101.07	133.56	59.060005
         328	1	110	1	0.0	103.13	137.89	59.259995
         329	1	110	3	0.0	102.59	139.28	57.259995
         330	1	110	4	0.0	104.12	138.41	60.23
         331	1	111	1	0.0	104.7	138.18	55.74
         332	1	111	3	0.0	105.89	136.05	55.8
         333	1	111	4	0.0	105.53	139.55	55.71
         334	1	112	1	0.0	106.67	136.24	52.98
         335	1	112	3	0.0	108.89	136.94	53.03
         336	1	112	4	0.0	105.71	135.49	52.07
         337	1	113	1	0.0	106.85	138.16	50.38
         338	1	113	3	0.0	106.189995	139.9	51.88
         339	1	113	4	0.0	107.62	138.64	49.250004
         340	1	114	1	0.0	103.69	140.18	50.680004
         341	1	114	3	0.0	103.12	138.52	52.39
         342	1	114	4	0.0	102.76999	140.43	49.44
         343	1	115	1	0.0	101.9	140.26	54.1
         344	1	115	3	0.0	100.02	139.03	53.13
         345	1	115	4	0.0	101.22	141.52	54.77
         346	1	116	1	0.0	99.58001	137.36	55.379997
         347	1	116	3	0.0	100.27	136.15	53.470005
         348	1	116	4	0.0	98.14	137.83	55.33
         349	1	117	1	0.0	99.58001	133.58	54.54
         350	1	117	3	0.0	97.93001	132.83	56.109997
         351	1	117	4	0.0	100.98999	133.09	54.91
         352	1	118	1	0.0	97.35	130.55	54.680004
         353	1	118	3	0.0	99.01001	128.82	54.38
         354	1	118	4	0.0	96.24	130.62	53.61
         355	1	119	1	0.0	97.65	126.85	55.66
         356	1	119	3	0.0	96.49	126.1	53.66
         357	1	119	4	0.0	97.45	126.21	57.07
         358	1	120	1	0.0	97.65	123.45	53.71
         359	1	120	3	0.0	99.12	122.41	55.31
         360	1	120	4	0.0	98.09	123.67	52.209995
         361	1	121	1	0.0	98.36	119.71001	54.48
         362	1	121	3	0.0	97.51	119.99	56.66
         363	1	121	4	0.0	99.83001	119.57	54.92
         364	1	122	1	0.0	95.92	117.9	56.73
         365	1	122	3	0.0	96.63	117.21	59.03
         366	1	122	4	0.0	94.79	116.920006	56.34
         367	1	123	1	0.0	98.81	115.69	58.06
         368	1	123	3	0.0	99.69	116.34	60.18
         369	1	123	4	0.0	99.79	114.86	57.159996
         370	1	124	1	0.0	100.84	118.68	59.319996
         371	1	124	3	0.0	100.52	119.39	61.61
         372	1	124	4	0.0	101.57	119.83001	58.5
         373	1	125	1	0.0	97.66	119.95	61.28
         374	1	125	3	0.0	97.6	119.27999	63.52
         375	1	125	4	0.0	96.26	120.07	60.589996
         376	1	126	1	0.0	97.4	116.47001	62.8
         377	1	126	3	0.0	98.74	116.07	64.88
         378	1	126	4	0.0	97.13	115.15	61.96
         379	1	127	1	0.0	101.22	116.21	63.6
         380	1	127	3	0.0	102.06	116.94	65.7
         381	1	127	4	0.0	102.23	116.16999	62.460003
         382	1	128	1	0.0	101.1	119.48	65.36
         383	1	128	3	0.0	100.87	119.63	67.67
         384	1	128	4	0.0	100.65	120.85	64.61
         385	1	129	1	0.0	98.17	118.72	67.63
         386	1	129	3	0.0	98.63999	117.65	69.82
         387	1	129	4	0.0	96.69	118.4	67.24
         388	1	130	1	0.0	99.94	115.5	68.74
         389	1	130	3	0.0	101.62999	115.66	70.41
         390	1	130	4	0.0	100.21999	114.18	67.95
         391	1	131	1	0.0	103.1	117.58	69.2
         392	1	131	3	0.0	103.27999	118.31	71.48
         393	1	131	4	0.0	103.83001	118.46	68.22
         394	1	132	1	0.0	101.0	119.83001	71.43
         395	1	132	3	0.0	100.68	119.29	73.77
         396	1	132	4	0.0	99.75	120.72001	71.02
         397	1	133	1	0.0	99.14001	117.01	73.34
         398	1	133	3	0.0	100.12	115.98	75.35
         399	1	133	4	0.0	98.03	116.25	72.55
         400	1	134	1	0.0	102.34	114.98	73.98
         401	1	134	3	0.0	103.649994	115.329994	75.93
         402	1	134	4	0.0	103.2	114.23	72.99
         403	1	135	1	0.0	104.04	118.11	75.6
         404	1	135	3	0.0	103.55	119.2	77.61
         405	1	135	4	0.0	104.85999	119.19	74.82
         406	1	136	1	0.0	100.84	118.91	77.3
         407	1	136	3	0.0	100.82	118.3	79.54
         408	1	136	4	0.0	99.38	119.12	76.72
         409	1	137	1	0.0	100.97	115.49	78.84
         410	1	137	3	0.0	102.23	115.590004	80.87
         411	1	137	4	0.0	100.97	114.12001	78.12
         412	1	138	1	0.0	104.76	116.31	79.34
         413	1	138	3	0.0	105.36001	116.77	81.61
         414	1	138	5	0.0	103.36	108.57294999	73.8989339
         415	1	139	1	0.0	104.43	119.48	81.42
         416	1	139	3	0.0	103.64	119.79	83.63
         417	1	139	4	0.0	104.48	120.79001	80.57
         418	1	140	1	0.0	101.1	118.92	83.31
         419	1	140	3	0.0	101.21	118.14	85.66
         420	1	140	4	0.0	99.7	118.48	82.74
         421	1	141	1	0.0	102.54	115.76	85.07
         422	1	141	3	0.0	103.43	115.73	87.18
         423	1	141	4	0.0	102.92	114.48	84.25
         424	1	142	1	0.0	105.44	117.30999	87.01001
         425	1	142	3	0.0	105.2	118.58	89.05
         426	1	142	4	0.0	106.73	117.86	86.33
         427	1	143	1	0.0	103.13	120.28	88.2
         428	1	143	3	0.0	103.1	120.69	90.509995
         429	1	143	4	0.0	102.09	120.95	87.36
         430	1	144	1	0.0	101.32	118.67	91.340004
         431	1	144	3	0.0	102.21	118.1	93.48001
         432	1	144	4	0.0	100.09	117.74	91.079994
         433	1	145	1	0.0	104.3	116.44	92.33
         434	1	145	3	0.0	104.96	116.16	94.63
         435	1	145	4	0.0	105.33	115.86	91.27999
         436	1	146	1	0.0	106.63999	118.25001	94.63999
         437	1	146	3	0.0	106.03	119.67	96.5
         438	1	146	4	0.0	108.12	118.69001	94.28
         439	1	147	1	0.0	104.47001	121.54	94.87
         440	1	147	3	0.0	103.16	122.05001	96.7
         441	1	147	5	0.0	105.30999	115.08931302	88.62188912
         442	1	148	1	0.0	101.84	119.590004	96.97
         443	1	148	3	0.0	101.810005	117.93001	98.74
         444	1	148	4	0.0	100.53	118.95999	96.4
         445	1	149	1	0.0	104.43	117.87999	99.19
         446	1	149	3	0.0	106.02	119.5	99.84999
         447	1	149	4	0.0	105.30999	116.8	98.61
         448	1	150	1	0.0	105.78	118.95999	102.57001
         449	1	150	3	0.0	106.189995	116.78	103.48
         450	1	150	4	0.0	104.85	120.02	103.26001
         451	1	151	1	0.0	107.07	117.74999	105.99
         452	1	151	3	0.0	105.99999	115.75	106.8
         453	1	151	4	0.0	107.39	118.700005	107.22
         454	1	152	1	0.0	103.39	116.93	106.87
         455	1	152	3	0.0	102.83999	117.58	104.68
         456	1	152	4	0.0	102.81	117.46	108.28
         457	1	153	1	0.0	99.94	117.57	105.05
         458	1	153	3	0.0	100.53	119.94	105.17
         459	1	153	4	0.0	98.59	116.85999	105.46
         460	1	154	1	0.0	99.079994	120.600006	102.9
         461	1	154	3	0.0	97.25	121.99999	102.99
         462	1	154	4	0.0	99.7	120.77	101.48001
         463	1	155	1	0.0	95.36	119.99	102.509995
         464	1	155	3	0.0	94.93	119.96	104.94
         465	1	155	4	0.0	94.78	118.700005	101.87999
         466	1	156	1	0.0	92.85999	121.69	104.78
         467	1	156	3	0.0	91.42	119.79	104.23
         468	1	156	4	0.0	92.33	123.13	104.48
         469	1	157	1	0.0	89.77	120.23	106.43
         470	1	157	3	0.0	87.7	119.76	105.30999
         471	1	157	4	0.0	89.33	120.15001	107.89
         472	1	158	1	0.0	87.54	122.4	104.24
         473	1	158	3	0.0	88.39	121.25	102.31999
         474	1	158	5	0.0	88.48	115.14926488	97.55831982
         475	1	159	1	0.0	88.5	123.61	100.69
         476	1	159	3	0.0	90.83999	123.24	101.23001
         477	1	159	4	0.0	88.52	125.12	100.25
         478	1	160	1	0.0	91.22	121.66	98.83
         479	1	160	3	0.0	92.37	121.4	96.68
         480	1	160	4	0.0	91.12	120.11	98.86
         481	1	161	1	0.0	91.72	123.91	95.81
         482	1	161	3	0.0	93.94999	124.24	94.83999
         483	1	161	4	0.0	90.91	125.22	95.67
         484	1	162	1	0.0	95.07	125.42999	97.10999
         485	1	162	3	0.0	96.02	127.62	96.88
         486	1	162	4	0.0	95.73	124.85	98.41
         487	1	163	1	0.0	93.65	128.76	98.1
         488	1	163	3	0.0	93.91	129.78	95.92
         489	1	163	4	0.0	94.16	128.87	99.5
         490	1	164	1	0.0	94.75	132.31	96.93
         491	1	164	3	0.0	96.94	131.63	96.12
         492	1	164	4	0.0	95.11	133.45	97.84
         493	1	165	1	0.0	96.46	132.93	93.53
         494	1	165	3	0.0	97.39	134.95	94.51999
         495	1	165	4	0.0	95.75	133.55	92.3
         496	1	166	1	0.0	99.92	134.07	94.87
         497	1	166	3	0.0	101.66	135.7	94.130005
         498	1	166	4	0.0	100.43	133.07	95.82
         499	1	167	1	0.0	102.74	134.09	92.16999
         500	1	167	3	0.0	103.079994	134.6	89.85
         501	1	167	4	0.0	103.62	132.77	91.89
         502	1	168	1	0.0	100.61	136.19	89.74
         503	1	168	3	0.0	101.49999	137.05	87.67
         504	1	168	4	0.0	99.36	136.94	90.189995
         505	1	169	1	0.0	103.13	138.89	88.85
         506	1	169	3	0.0	104.4	138.68	86.75
         507	1	169	4	0.0	103.649994	140.0	89.92
         508	1	170	1	0.0	106.06	136.85	87.72
         509	1	170	3	0.0	106.22	135.75	85.62
         510	1	170	4	0.0	107.15	136.26	88.59
         511	1	171	1	0.0	104.03001	134.07	85.97
         512	1	171	3	0.0	103.26001	134.87	83.87
         513	1	171	5	0.0	104.53999	124.27703248	80.26998283
         514	1	172	1	0.0	100.53999	134.75	84.73
         515	1	172	3	0.0	100.03001	136.38	83.02
         516	1	172	4	0.0	99.329994	134.95	85.65
         517	1	173	1	0.0	101.32	138.49	84.24
         518	1	173	3	0.0	102.6	138.71	82.07
         519	1	173	4	0.0	101.26	139.51	85.42
         520	1	174	1	0.0	104.979996	139.05	83.01
         521	1	174	3	0.0	105.93001	138.18	80.94
         522	1	174	4	0.0	106.17	139.45	83.98
         523	1	175	1	0.0	105.99999	135.62	81.82
         524	1	175	3	0.0	105.490005	134.65	79.65
         525	1	175	4	0.0	106.47	134.34	82.6
         526	1	176	1	0.0	102.72	134.63	79.99
         527	1	176	3	0.0	101.89	136.09	78.13
         528	1	176	4	0.0	101.810005	133.65	80.74
         529	1	177	1	0.0	100.27	137.64	79.52
         530	1	177	3	0.0	100.64	139.27	77.7
         531	1	177	4	0.0	99.27999	138.13	80.63
         532	1	178	1	0.0	103.04	140.24	78.37
         533	1	178	3	0.0	103.26001	140.59	76.08
         534	1	178	4	0.0	104.14	141.07	79.17
         535	1	179	1	0.0	104.43	138.14	75.49
         536	1	179	3	0.0	103.25	138.11	73.47
         537	1	179	4	0.0	105.32	136.87	75.8
         538	1	180	1	0.0	100.85999	136.91	74.66
         539	1	180	3	0.0	99.67	138.23	73.02
         540	1	180	4	0.0	99.94	136.3	75.69
         541	1	181	1	0.0	99.69	140.58	74.54
         542	1	181	3	0.0	99.87	141.72	72.38
         543	1	181	4	0.0	99.62	141.66	75.67
         544	1	182	1	0.0	102.54	141.34	72.05
         545	1	182	3	0.0	102.04	141.16	69.78
         546	1	182	4	0.0	103.99	141.29	72.41
         547	1	183	1	0.0	101.52	138.35	69.83
         548	1	183	3	0.0	99.79	138.67	68.2
         549	1	183	4	0.0	101.72	136.87	70.34
         550	1	184	1	0.0	97.79	139.25	70.06
         551	1	184	3	0.0	97.15	140.91	68.4
         552	1	184	4	0.0	96.88	139.18	71.28
         553	1	185	1	0.0	98.88	142.87	69.17
         554	1	185	3	0.0	99.0	143.49	66.86
         555	1	185	4	0.0	99.38	143.91	70.14
         556	1	186	1	0.0	101.13	141.7	66.31
         557	1	186	3	0.0	100.05	141.6	64.15
         558	1	186	4	0.0	102.4	140.79	66.45
         559	1	187	1	0.0	98.27	139.78	64.84
         560	1	187	3	0.0	96.84	140.92	63.18
         561	1	187	4	0.0	97.52	138.69	65.59
         562	1	188	1	0.0	96.06	142.88	64.96
         563	1	188	3	0.0	96.05	144.23	62.95
         564	1	188	4	0.0	95.67	143.71	66.2
         565	1	189	1	0.0	98.759995	145.05	63.07
         566	1	189	3	0.0	98.73	145.12	60.66
         567	1	189	4	0.0	100.13	145.29	63.77
         568	1	190	1	0.0	99.26001	142.36	60.31
         569	1	190	3	0.0	97.76	142.79	58.44
         570	1	190	4	0.0	99.43	140.84	60.48
         571	1	191	1	0.0	95.329994	142.05	60.01
         572	1	191	3	0.0	94.11	143.51	58.51
         573	1	191	4	0.0	94.41	141.2	60.93
         574	1	192	1	0.0	94.67	145.91	59.88
         575	1	192	3	0.0	94.36	146.62	57.65
         576	1	192	4	0.0	95.37	146.94	60.89
         577	1	193	1	0.0	97.07	146.34	56.95
         578	1	193	3	0.0	96.350006	145.87	54.680004
         579	1	193	4	0.0	98.66	146.47	57.060005
         580	1	194	1	0.0	95.73	143.25	55.13
         581	1	194	3	0.0	93.93001	143.68	53.61
         582	1	194	4	0.0	95.87	141.8	55.630005
         583	1	195	1	0.0	92.18	144.53	55.570004
         584	1	195	3	0.0	91.340004	145.84	53.77
         585	1	195	4	0.0	91.55	144.82	56.900005
         586	1	196	1	0.0	93.07	147.99	54.09
         587	1	196	3	0.0	92.72001	148.38	51.77
         588	1	196	4	0.0	94.12001	148.97	54.54
         589	1	197	1	0.0	94.54	146.34	50.88
         590	1	197	3	0.0	92.47001	144.97	50.71
         591	1	197	4	0.0	95.75	145.31	50.82
         592	1	198	1	0.0	92.28	144.86	48.07
         593	1	198	3	0.0	93.77	143.01	48.25
         594	1	198	4	0.0	92.53	145.29	46.580006
         595	1	199	1	0.0	91.6	141.16	48.680004
         596	1	199	3	0.0	93.09	139.41	47.93
         597	1	199	4	0.0	90.18	140.58	48.95
         598	1	200	1	0.0	92.670006	140.07	45.18
         599	1	200	3	0.0	93.49999	141.95	43.8
         600	1	200	4	0.0	91.68	139.81	44.08
         601	1	201	1	0.0	96.15001	141.49	44.049995
         602	1	201	3	0.0	97.4	139.38	44.209995
         603	1	201	4	0.0	96.75	142.38	45.159996
         604	1	202	1	0.0	98.61	139.54	41.72
         605	1	202	3	0.0	100.62	140.55	42.68
         606	1	202	4	0.0	98.59	139.71	40.15
         607	1	203	1	0.0	101.96	138.02	42.94
         608	1	203	3	0.0	102.42	139.45	44.840004
         609	1	203	4	0.0	103.05	138.47	41.92
         610	1	204	1	0.0	103.20999	137.43	46.460003
         611	1	204	3	0.0	105.2	137.71	47.670002
         612	1	204	4	0.0	102.68	136.33	47.479996
         613	1	205	1	0.0	106.85	137.48	45.410004
         614	1	205	3	0.0	106.63	139.52	44.39
         615	1	205	4	0.0	107.329994	136.51	44.26
         616	1	206	1	0.0	109.07	140.56	45.43
         617	1	206	3	0.0	107.32	141.82	46.41
         618	1	206	5	0.0	108.52	132.06115189	42.05348137
         619	1	207	1	0.0	108.7	144.2	46.61
         620	1	207	3	0.0	108.18	144.9	44.369995
         621	1	207	4	0.0	109.85	145.12	46.92
         622	1	208	1	0.0	105.66	146.17	45.13
         623	1	208	3	0.0	106.06999	147.34	43.14
         624	1	208	4	0.0	104.64	146.85	46.06
         625	1	209	1	0.0	108.2	148.92	44.269997
         626	1	209	3	0.0	109.80001	149.14	42.48
         627	1	209	4	0.0	108.98999	149.73	45.31
         628	1	210	1	0.0	110.21	146.28	42.13
         629	1	210	3	0.0	109.99	144.67	40.39
         630	1	210	4	0.0	111.24	145.35	42.8
         631	1	211	1	0.0	107.26001	144.33	40.66
         632	1	211	3	0.0	106.95999	145.48	38.53
         633	1	211	4	0.0	105.869995	144.48	41.18
         634	1	212	1	0.0	107.5	143.22	36.95
         635	1	212	3	0.0	105.07	143.34	36.86
         636	1	212	4	0.0	107.95	141.85	36.54
         637	1	213	1	0.0	105.04001	144.8	34.53
         638	1	213	3	0.0	105.17	142.79	33.31
         639	1	213	4	0.0	105.23001	145.88	33.43
         640	1	214	1	0.0	102.43	142.13	33.74
         641	1	214	3	0.0	101.32	143.86	32.46
         642	1	214	4	0.0	101.76	141.44	34.99
         643	1	215	1	0.0	99.52999	142.1	31.13
         644	1	215	3	0.0	98.51999	143.43	32.81
         645	1	215	4	0.0	98.79	140.81	30.68
         646	1	216	1	0.0	96.48	144.31	31.08
         647	1	216	3	0.0	96.61	146.42	32.2
         648	1	216	4	0.0	95.73	143.87	32.38
         649	1	217	1	0.0	97.41	147.81	29.93
         650	1	217	3	0.0	96.3	149.76	30.79
         651	1	217	4	0.0	98.09	148.01	28.54