ITEM: TIMESTEP
0
ITEM: NUMBER OF ATOMS
8634
ITEM: BOX BOUNDS ss ss ss
31.98 165.61
6.13 155.57
0.26 127.26
ITEM: ATOMS id type xs ys zs
1 1 0.362344 0.853453 0.854252
2 3 0.351268 0.86242 0.843228
3 4 0.359425 0.845021 0.861496
4 1 0.343336 0.847631 0.832992
5 3 0.335553 0.835118 0.839843
6 4 0.34835 0.844151 0.822598
7 1 0.315348 0.841542 0.837244
8 3 0.314525 0.833846 0.820551
9 4 0.307042 0.848635 0.835591
10 1 0.305395 0.818255 0.82874
11 3 0.301579 0.816448 0.809921
12 4 0.298511 0.812099 0.835906
13 1 0.286238 0.829831 0.809449
14 3 0.291177 0.833512 0.792126
15 4 0.27651 0.835586 0.812599
16 1 0.307117 0.844285 0.798189
17 3 0.318566 0.838062 0.785118
18 4 0.311457 0.852181 0.803622
19 1 0.324179 0.822671 0.797402
20 3 0.322607 0.815244 0.780315
21 4 0.326424 0.815645 0.805984
22 1 0.302552 0.81163 0.781417
23 3 0.302926 0.813771 0.762598
24 4 0.292374 0.808619 0.785354
25 1 0.301953 0.831772 0.762835
26 3 0.313777 0.830768 0.74874
27 4 0.298586 0.841743 0.764961
28 1 0.331363 0.831839 0.760866
29 3 0.336826 0.82401 0.745433
30 4 0.338846 0.83224 0.771024
31 1 0.328968 0.807682 0.752598
32 3 0.326723 0.804403 0.734882
33 4 0.324254 0.800388 0.760079
34 1 0.308913 0.81424 0.732126
35 3 0.315573 0.816582 0.714882
36 4 0.299109 0.818723 0.734331
37 1 0.325526 0.832976 0.72063
38 3 0.336302 0.828761 0.706693
39 4 0.329716 0.841207 0.726929
40 1 0.346704 0.816113 0.719449
41 3 0.347078 0.80989 0.70189
42 4 0.350969 0.810292 0.72811
43 1 0.331213 0.798514 0.705748
44 3 0.329567 0.798314 0.686772
45 4 0.321709 0.793897 0.71
46 1 0.319015 0.815043 0.686142
47 3 0.327846 0.816448 0.66937
48 4 0.313552 0.824077 0.689843
49 1 0.345656 0.822537 0.677795
50 3 0.353962 0.814307 0.664724
51 4 0.353214 0.827422 0.685118
52 1 0.352765 0.797912 0.673937
53 3 0.350296 0.792291 0.657008
54 4 0.353663 0.790484 0.682756
55 1 0.330091 0.795503 0.657008
56 3 0.331288 0.799184 0.639291
57 4 0.31924 0.795503 0.660315
58 1 0.336975 0.81705 0.643307
59 3 0.348425 0.816047 0.629134
60 4 0.3372 0.826285 0.649055
61 1 0.364289 0.808619 0.639685
62 3 0.36863 0.79905 0.625669
63 4 0.37282 0.808686 0.647874
64 1 0.354561 0.785666 0.630866
65 3 0.351568 0.784863 0.612205
66 4 0.348949 0.777837 0.636693
67 1 0.337424 0.797711 0.610945
68 3 0.344084 0.797845 0.59315
69 4 0.330315 0.805474 0.613228
70 1 0.361895 0.807816 0.600157
71 3 0.369752 0.799987 0.585591
72 5 0.353214 0.761396 0.559134
73 1 0.373943 0.784127 0.597717
74 3 0.3708 0.777235 0.581339
75 4 0.374916 0.777034 0.606929
76 1 0.350146 0.775027 0.584567
77 3 0.3482 0.774558 0.565906
78 4 0.340418 0.775294 0.590551
79 1 0.349472 0.792893 0.564094
80 3 0.357031 0.790016 0.546693
81 4 0.350146 0.802797 0.566299
82 1 0.375365 0.785934 0.553465
83 3 0.37514 0.774023 0.540551
84 4 0.385542 0.785466 0.559606
85 1 0.367432 0.76171 0.555197
86 3 0.361521 0.755219 0.539606
87 4 0.364439 0.756223 0.564961
88 1 0.343112 0.764454 0.54063
89 3 0.340567 0.766863 0.522441
90 4 0.333084 0.767398 0.545512
91 1 0.355833 0.779778 0.520236
92 3 0.361146 0.773153 0.504094
93 4 0.361221 0.788678 0.521417
94 1 0.375365 0.76238 0.51315
95 3 0.364289 0.750268 0.510236
96 4 0.383222 0.758632 0.52063
97 1 0.369004 0.749465 0.48748
98 3 0.381651 0.738624 0.491811
99 4 0.371249 0.753212 0.476142
100 1 0.372147 0.723836 0.485512
101 3 0.374691 0.712259 0.473228
102 4 0.363915 0.718482 0.490709
103 1 0.382773 0.7233 0.458268
104 3 0.397216 0.717278 0.467008
105 4 0.383746 0.730996 0.450157
106 1 0.399985 0.703694 0.45126
107 3 0.41353 0.7142 0.449606
108 4 0.39991 0.697671 0.44126
109 1 0.427299 0.701151 0.460157
110 3 0.435755 0.709917 0.473071
111 4 0.434558 0.704831 0.451417
112 1 0.418544 0.707173 0.48811
113 3 0.430143 0.711925 0.501417
114 4 0.408366 0.70356 0.492126
115 1 0.43815 0.694995 0.504961
116 3 0.45409 0.701352 0.511181
117 4 0.440694 0.684489 0.504803
118 1 0.458131 0.710854 0.492756
119 3 0.461798 0.726512 0.490315
120 4 0.46292 0.708043 0.481969
121 1 0.442865 0.732669 0.494094
122 3 0.443463 0.736817 0.512441
123 4 0.43164 0.732802 0.490394
124 1 0.450647 0.75435 0.509134
125 3 0.440919 0.758431 0.524646
126 4 0.454539 0.762848 0.503543
127 1 0.422809 0.758164 0.514331
128 3 0.415176 0.753547 0.530709
129 4 0.414578 0.760439 0.506772
130 1 0.419741 0.734743 0.526142
131 3 0.421387 0.732736 0.544961
132 4 0.421387 0.726445 0.51937
133 1 0.440919 0.74023 0.545984
134 3 0.435456 0.747056 0.562047
135 4 0.451545 0.742907 0.543307
136 1 0.427599 0.762915 0.552283
137 3 0.414727 0.763183 0.566378
138 4 0.426102 0.770343 0.544409
139 1 0.403128 0.749799 0.555748
140 3 0.400509 0.743643 0.572756
141 4 0.398713 0.744245 0.546299
142 1 0.416897 0.734074 0.573307
143 3 0.419741 0.734074 0.591811
144 4 0.425428 0.727248 0.570394
145 1 0.426551 0.752342 0.590394
146 3 0.4157 0.757361 0.604882
147 4 0.432987 0.760439 0.585354
148 1 0.400883 0.762446 0.590866
149 3 0.392352 0.757829 0.606693
150 4 0.395196 0.76519 0.580945
151 1 0.390481 0.739762 0.599685
152 3 0.388985 0.737286 0.618346
153 4 0.391604 0.731196 0.592677
154 1 0.410013 0.736951 0.620551
155 3 0.408217 0.742037 0.63874
156 4 0.421313 0.735211 0.618346
157 1 0.405223 0.760907 0.631732
158 3 0.392502 0.761175 0.645748
159 4 0.407693 0.769004 0.625433
160 1 0.377685 0.75455 0.632913
161 3 0.372222 0.747591 0.64874
162 4 0.372222 0.753078 0.62315
163 1 0.384944 0.732066 0.646772
164 3 0.384569 0.732736 0.665906
165 4 0.390706 0.724103 0.641654
166 1 0.399312 0.74478 0.667165
167 3 0.389508 0.749599 0.682441
168 4 0.408292 0.750535 0.664094
169 1 0.376936 0.761041 0.671417
170 3 0.364589 0.75803 0.684331
171 5 0.385767 0.71832 0.628978
172 1 0.360323 0.740899 0.676457
173 3 0.358153 0.735613 0.69315
174 4 0.358003 0.733003 0.668189
175 1 0.379032 0.733539 0.69748
176 3 0.37731 0.739093 0.715118
177 4 0.389658 0.730594 0.695669
178 1 0.381052 0.757628 0.708031
179 3 0.370501 0.763785 0.721102
180 4 0.385842 0.764989 0.701732
181 1 0.353364 0.761443 0.709685
182 3 0.347527 0.764253 0.726772
183 4 0.346629 0.759569 0.700866
184 1 0.345431 0.746788 0.733858
185 3 0.351493 0.750468 0.751181
186 4 0.342887 0.736416 0.732441
187 1 0.371324 0.749331 0.746535
188 3 0.37529 0.761376 0.759055
189 4 0.380902 0.745383 0.741969
190 1 0.373943 0.775161 0.744882
191 3 0.366983 0.782722 0.759921
192 4 0.373344 0.78125 0.735276
193 1 0.347751 0.77583 0.75685
194 3 0.346479 0.774826 0.775433
195 4 0.3369 0.774358 0.75189
196 1 0.355609 0.758632 0.777638
197 3 0.361595 0.765725 0.79378
198 4 0.360323 0.749465 0.776378
199 1 0.377535 0.775094 0.783858
200 3 0.374841 0.786871 0.796772
201 4 0.38644 0.777637 0.776378
202 1 0.358827 0.794499 0.786614
203 3 0.354112 0.797845 0.804724
204 4 0.352765 0.799786 0.778268
205 1 0.339819 0.784261 0.806299
206 3 0.342513 0.78125 0.824252
207 4 0.329716 0.779912 0.802992
208 1 0.355908 0.767198 0.820157
209 3 0.369827 0.777168 0.816614
210 4 0.358153 0.757896 0.816378
211 1 0.374991 0.778707 0.838583
212 3 0.387263 0.768068 0.833937
213 5 0.367133 0.734074 0.789314
214 1 0.401332 0.775495 0.848898
215 3 0.405298 0.765658 0.862992
216 4 0.406271 0.783057 0.855512
217 1 0.403278 0.749532 0.850079
218 3 0.399386 0.735412 0.841732
219 4 0.395196 0.747859 0.858661
220 1 0.408067 0.73916 0.822756
221 3 0.394148 0.732334 0.813858
222 4 0.41802 0.739896 0.816457
223 1 0.39123 0.744513 0.798583
224 3 0.390556 0.73046 0.790236
225 4 0.391379 0.753413 0.793465
226 1 0.40919 0.731196 0.780866
227 3 0.425803 0.732401 0.787402
228 4 0.410536 0.73568 0.769213
229 1 0.43149 0.715672 0.786142
230 3 0.438898 0.722163 0.771024
231 4 0.429544 0.705434 0.784882
232 1 0.458056 0.723836 0.780394
233 3 0.463968 0.726713 0.762992
234 4 0.466063 0.724772 0.788504
235 1 0.46539 0.707843 0.758504
236 3 0.460675 0.712058 0.741417
237 4 0.468458 0.697738 0.758976
238 1 0.44047 0.713664 0.744173
239 3 0.442191 0.72678 0.73315
240 4 0.429918 0.710252 0.747953
241 1 0.446756 0.738959 0.749213
242 3 0.456185 0.746052 0.735118
243 4 0.449076 0.743241 0.759606
244 1 0.473322 0.734007 0.736142
245 3 0.475492 0.735613 0.717402
246 4 0.480955 0.728118 0.742283
247 1 0.460376 0.722698 0.712598
248 3 0.455287 0.732468 0.697953
249 4 0.454464 0.713731 0.713228
250 1 0.443014 0.742639 0.710472
251 3 0.449151 0.754015 0.698661
252 4 0.435755 0.74458 0.719134
253 1 0.46539 0.759235 0.712205
254 3 0.47205 0.762246 0.695827
255 4 0.471825 0.762045 0.721417
256 1 0.47856 0.744379 0.691102
257 3 0.475268 0.749599 0.673386
258 4 0.482003 0.73394 0.69126
259 1 0.455287 0.745851 0.67252
260 3 0.455437 0.758097 0.660236
261 4 0.44481 0.741301 0.674409
262 1 0.45177 0.770276 0.675276
263 3 0.461049 0.780648 0.664646
264 4 0.448178 0.774358 0.685906
265 1 0.480132 0.774425 0.672283
266 3 0.485669 0.777302 0.655039
267 4 0.48769 0.771346 0.680236
268 1 0.479608 0.758967 0.647795
269 3 0.47871 0.766328 0.630551
270 4 0.47639 0.749063 0.649291
271 1 0.458505 0.771815 0.634488
272 3 0.462097 0.785466 0.624567
273 4 0.447654 0.771815 0.638976
274 1 0.471975 0.794165 0.641339
275 3 0.483574 0.796975 0.626535
276 4 0.474968 0.797979 0.652441
277 1 0.49682 0.783927 0.630472
278 3 0.500935 0.78754 0.612913
279 4 0.503031 0.776097 0.634409
280 1 0.484846 0.776566 0.604331
281 3 0.483574 0.786536 0.590157
282 4 0.476465 0.768937 0.605039
283 1 0.473472 0.799384 0.602283
284 3 0.48335 0.809823 0.592992
285 4 0.465689 0.803935 0.610157
286 1 0.49869 0.811229 0.60811
287 3 0.507745 0.814173 0.591969
288 4 0.504228 0.81163 0.618661
289 1 0.512909 0.796574 0.587953
290 3 0.511637 0.799853 0.569213
291 4 0.515004 0.786469 0.589685
292 1 0.491731 0.797578 0.567402
293 3 0.493377 0.809087 0.554409
294 4 0.479982 0.794232 0.569213
295 1 0.491432 0.82334 0.568583
296 3 0.503629 0.831638 0.558661
297 4 0.487615 0.828292 0.578346
298 1 0.52114 0.822738 0.566378
299 3 0.526903 0.82421 0.54811
300 4 0.528474 0.817184 0.57252
301 1 0.517099 0.808753 0.541339
302 3 0.516576 0.816582 0.524724
303 4 0.512086 0.799518 0.542205
304 1 0.498167 0.825214 0.530079
305 3 0.503555 0.838397 0.520551
306 4 0.487765 0.826552 0.535354
307 1 0.51448 0.844888 0.537244
308 3 0.526079 0.849906 0.524094
309 4 0.518671 0.84723 0.548346
310 1 0.535733 0.83224 0.52315
311 3 0.537379 0.834716 0.504646
312 4 0.53925 0.823073 0.527953
313 1 0.518895 0.827891 0.498504
314 3 0.520018 0.838464 0.483858
315 4 0.508793 0.822872 0.497717
316 1 0.513433 0.852918 0.496299
317 3 0.524807 0.862018 0.486693
318 4 0.508045 0.858539 0.504646
319 1 0.541346 0.859475 0.499528
320 3 0.549727 0.863825 0.483307
321 4 0.547482 0.857133 0.509449
322 1 0.550326 0.846895 0.474882
323 3 0.546434 0.849371 0.456378
324 4 0.552645 0.837192 0.473386
325 1 0.527277 0.856464 0.460157
326 3 0.519569 0.869379 0.453386
327 4 0.517025 0.852717 0.462992
328 1 0.53244 0.881692 0.464567
329 3 0.528399 0.890993 0.448819
330 4 0.539849 0.885171 0.472205
331 1 0.544189 0.883632 0.43685
332 3 0.553094 0.869379 0.437323
333 4 0.5504 0.8928 0.436614
334 1 0.558931 0.87065 0.415118
335 3 0.575544 0.875335 0.415512
336 4 0.551747 0.865632 0.407953
337 1 0.560278 0.883498 0.394646
338 3 0.555339 0.895142 0.406457
339 4 0.566041 0.88671 0.385748
340 1 0.536631 0.897016 0.397008
341 3 0.532365 0.885907 0.410472
342 4 0.529746 0.898688 0.387244
343 1 0.523236 0.897551 0.423937
344 3 0.509167 0.88932 0.416299
345 4 0.518147 0.905982 0.429213
346 1 0.505875 0.878145 0.434016
347 3 0.511038 0.870048 0.418976
348 4 0.495098 0.88129 0.433622
349 1 0.505875 0.852851 0.427402
350 3 0.493527 0.847832 0.439764
351 4 0.516426 0.849572 0.430315
352 1 0.489187 0.832575 0.428504
353 3 0.501609 0.820998 0.426142
354 4 0.48088 0.833043 0.420079
355 1 0.491432 0.807816 0.43622
356 3 0.482751 0.802797 0.420472
357 4 0.489935 0.803533 0.447323
358 1 0.491432 0.785064 0.420866
359 3 0.502432 0.778105 0.433465
360 4 0.494724 0.786536 0.409055
361 1 0.496745 0.760038 0.426929
362 3 0.490384 0.761911 0.444094
363 4 0.507745 0.759101 0.430394
364 1 0.478485 0.747926 0.444646
365 3 0.483799 0.743308 0.462756
366 4 0.470029 0.741368 0.441575
367 1 0.500112 0.733137 0.455118
368 3 0.506698 0.737487 0.471811
369 4 0.507446 0.727583 0.448031
370 1 0.515303 0.753145 0.465039
371 3 0.512909 0.757896 0.483071
372 4 0.520766 0.760841 0.458583
373 1 0.491506 0.761643 0.480472
374 3 0.491057 0.75716 0.49811
375 4 0.48103 0.762446 0.475039
376 1 0.489561 0.738357 0.492441
377 3 0.499588 0.73568 0.508819
378 4 0.48754 0.729524 0.485827
379 1 0.518147 0.736617 0.49874
380 3 0.524433 0.741502 0.515276
381 4 0.525705 0.736349 0.489764
382 1 0.517249 0.758498 0.512598
383 3 0.515528 0.759502 0.530787
384 4 0.513882 0.767666 0.506693
385 1 0.495323 0.753413 0.530472
386 3 0.49884 0.746253 0.547717
387 4 0.484248 0.751271 0.527402
388 1 0.508568 0.731866 0.539213
389 3 0.521215 0.732936 0.552362
390 4 0.510664 0.723033 0.532992
391 1 0.532216 0.745784 0.542835
392 3 0.533563 0.750669 0.560787
393 4 0.537679 0.751673 0.535118
394 1 0.516501 0.760841 0.560394
395 3 0.514106 0.757227 0.578819
396 4 0.507147 0.766796 0.557165
397 1 0.502582 0.74197 0.575433
398 3 0.509915 0.735078 0.59126
399 4 0.494275 0.736884 0.569213
400 1 0.526528 0.728386 0.580472
401 3 0.536332 0.730728 0.595827
402 4 0.532964 0.723367 0.572677
403 1 0.53925 0.749331 0.593228
404 3 0.535583 0.756625 0.609055
405 4 0.545386 0.756558 0.587087
406 1 0.515303 0.754684 0.606614
407 3 0.515154 0.750602 0.624252
408 4 0.504378 0.756089 0.602047
409 1 0.516276 0.731799 0.61874
410 3 0.525705 0.732468 0.634724
411 4 0.516276 0.722631 0.613071
412 1 0.544638 0.737286 0.622677
413 3 0.549128 0.740364 0.640551
414 5 0.534161 0.685512 0.579834
415 1 0.542169 0.758498 0.639055
416 3 0.536257 0.760573 0.656457
417 4 0.542543 0.767265 0.632362
418 1 0.517249 0.754751 0.653937
419 3 0.518072 0.749532 0.672441
420 4 0.506772 0.751807 0.649449
421 1 0.528025 0.733605 0.667795
422 3 0.534685 0.733405 0.684409
423 4 0.530869 0.72504 0.661339
424 1 0.549727 0.743977 0.683071
425 3 0.547931 0.752476 0.699134
426 4 0.55938 0.747658 0.677717
427 1 0.53244 0.763852 0.692441
428 3 0.532216 0.766595 0.71063
429 4 0.524658 0.768335 0.685827
430 1 0.518895 0.753078 0.717165
431 3 0.525556 0.749264 0.734016
432 4 0.509691 0.746855 0.715118
433 1 0.541196 0.738156 0.724961
434 3 0.546135 0.736282 0.743071
435 4 0.548904 0.734275 0.716693
436 1 0.558707 0.750268 0.74315
437 3 0.554142 0.75977 0.757795
438 4 0.569782 0.753212 0.740315
439 1 0.542468 0.772283 0.744961
440 3 0.532665 0.775696 0.75937
441 5 0.548754 0.729117 0.695763
442 1 0.522787 0.759235 0.761496
443 3 0.522562 0.748126 0.775433
444 4 0.512984 0.755019 0.757008
445 1 0.542169 0.747792 0.778976
446 3 0.554067 0.758632 0.784173
447 4 0.548754 0.740565 0.774409
448 1 0.552271 0.755019 0.805591
449 3 0.555339 0.740431 0.812756
450 4 0.545312 0.762112 0.811024
451 1 0.561925 0.746922 0.83252
452 3 0.553917 0.733539 0.838898
453 4 0.564319 0.753279 0.842205
454 1 0.534386 0.741435 0.839449
455 3 0.53027 0.745784 0.822205
456 4 0.530046 0.744981 0.850551
457 1 0.508568 0.745717 0.825118
458 3 0.512984 0.761577 0.826063
459 4 0.498466 0.740966 0.828346
460 1 0.502133 0.765993 0.808189
461 3 0.488438 0.775361 0.808898
462 4 0.506772 0.767131 0.797008
463 1 0.474295 0.761911 0.805118
464 3 0.471077 0.76171 0.824252
465 4 0.469954 0.753279 0.800157
466 1 0.455586 0.773287 0.822992
467 3 0.44481 0.760573 0.818661
468 4 0.45162 0.782923 0.82063
469 1 0.432463 0.763517 0.835984
470 3 0.416972 0.760372 0.827165
471 4 0.42917 0.762982 0.84748
472 1 0.415775 0.778038 0.81874
473 3 0.422136 0.770343 0.803622
474 5 0.422809 0.729519 0.766129
475 1 0.422959 0.786135 0.790787
476 3 0.44047 0.783659 0.795039
477 4 0.423109 0.796239 0.787323
478 1 0.443314 0.773086 0.776142
479 3 0.451919 0.771346 0.759213
480 4 0.442565 0.762714 0.776378
481 1 0.447055 0.788142 0.752362
482 3 0.463743 0.790351 0.744724
483 4 0.440994 0.796908 0.75126
484 1 0.472125 0.798314 0.762598
485 3 0.479234 0.812968 0.760787
486 4 0.477064 0.794433 0.772835
487 1 0.461498 0.820597 0.770394
488 3 0.463444 0.827422 0.753228
489 4 0.465315 0.821333 0.781417
490 1 0.46973 0.844352 0.761181
491 3 0.486118 0.839802 0.754803
492 4 0.472424 0.851981 0.768346
493 1 0.482526 0.848501 0.734409
494 3 0.489486 0.862018 0.742205
495 4 0.477213 0.85265 0.724724
496 1 0.508419 0.85613 0.744961
497 3 0.52144 0.867037 0.739134
498 4 0.512235 0.849438 0.752441
499 1 0.529522 0.856263 0.723701
500 3 0.532066 0.859676 0.705433
501 4 0.536107 0.84743 0.721496
502 1 0.513582 0.870316 0.704567
503 3 0.520242 0.876071 0.688268
504 4 0.504228 0.875335 0.70811
505 1 0.53244 0.888383 0.697559
506 3 0.541944 0.886978 0.681024
507 4 0.536332 0.895811 0.705984
508 1 0.554367 0.874732 0.688661
509 3 0.555564 0.867372 0.672126
510 4 0.562523 0.870784 0.695512
511 1 0.539175 0.85613 0.674882
512 3 0.533413 0.861483 0.658346
513 5 0.542992 0.790598 0.63
514 1 0.513058 0.86068 0.665118
515 3 0.509242 0.871587 0.651654
516 4 0.504004 0.862018 0.672362
517 1 0.518895 0.885707 0.66126
518 3 0.528474 0.887179 0.644173
519 4 0.518446 0.892532 0.670551
520 1 0.546284 0.889454 0.651575
521 3 0.553394 0.883632 0.635276
522 4 0.55519 0.892131 0.659213
523 1 0.553917 0.866502 0.642205
524 3 0.550101 0.860011 0.625118
525 4 0.557435 0.857936 0.648346
526 1 0.529372 0.859877 0.627795
527 3 0.523161 0.869647 0.61315
528 4 0.522562 0.853319 0.633701
529 1 0.511038 0.880019 0.624094
530 3 0.513807 0.890926 0.609764
531 4 0.503629 0.883298 0.632835
532 1 0.531767 0.897417 0.615039
533 3 0.533413 0.899759 0.597008
534 4 0.539999 0.902971 0.621339
535 1 0.542169 0.883365 0.592362
536 3 0.533338 0.883164 0.576457
537 4 0.548829 0.874866 0.594803
538 1 0.515453 0.875134 0.585827
539 3 0.506548 0.883967 0.572913
540 4 0.508568 0.871052 0.593937
541 1 0.506698 0.899692 0.584882
542 3 0.508045 0.907321 0.567874
543 4 0.506174 0.906919 0.59378
544 1 0.528025 0.904778 0.565276
545 3 0.524283 0.903573 0.547402
546 4 0.538876 0.904443 0.56811
547 1 0.520392 0.88477 0.547795
548 3 0.507446 0.886911 0.534961
549 4 0.521889 0.874866 0.551811
550 1 0.492479 0.890792 0.549606
551 3 0.48769 0.9019 0.536535
552 4 0.485669 0.890324 0.559213
553 1 0.500636 0.915016 0.542598
554 3 0.501534 0.919165 0.524409
555 4 0.504378 0.921975 0.550236
556 1 0.517474 0.907187 0.520079
557 3 0.509392 0.906518 0.503071
558 4 0.526977 0.901097 0.521181
559 1 0.496071 0.894339 0.508504
560 3 0.48537 0.901967 0.495433
561 4 0.490459 0.887045 0.514409
562 1 0.479533 0.915083 0.509449
563 3 0.479458 0.924117 0.493622
564 4 0.476615 0.920637 0.519213
565 1 0.499738 0.929604 0.494567
566 3 0.499514 0.930072 0.475591
567 4 0.50999 0.93121 0.500079
568 1 0.50348 0.911603 0.472835
569 3 0.492255 0.914481 0.45811
570 4 0.504752 0.901432 0.474173
571 1 0.47407 0.909529 0.470472
572 3 0.464941 0.919299 0.458661
573 4 0.467186 0.903841 0.477717
574 1 0.469131 0.935359 0.469449
575 3 0.466811 0.94011 0.45189
576 4 0.47437 0.942251 0.477402
577 1 0.487091 0.938236 0.446378
578 3 0.481703 0.935091 0.428504
579 4 0.49899 0.939106 0.447244
580 1 0.477064 0.917559 0.432047
581 3 0.463594 0.920436 0.420079
582 4 0.478111 0.907856 0.435984
583 1 0.450498 0.926124 0.435512
584 3 0.444212 0.93489 0.421339
585 4 0.445783 0.928065 0.445984
586 1 0.457158 0.949277 0.423858
587 3 0.454539 0.951887 0.405591
588 4 0.465015 0.955835 0.427402
589 1 0.468158 0.938236 0.398583
590 3 0.452668 0.929069 0.397244
591 4 0.477213 0.931344 0.39811
592 1 0.451246 0.928332 0.376457
593 3 0.462396 0.915953 0.377874
594 4 0.453117 0.93121 0.364724
595 1 0.446157 0.903573 0.38126
596 3 0.457307 0.891863 0.375354
597 4 0.435531 0.899692 0.383386
598 1 0.454165 0.896279 0.353701
599 3 0.460376 0.90886 0.342835
600 4 0.446756 0.89454 0.345039
601 1 0.480207 0.905782 0.344803
602 3 0.489561 0.891662 0.346063
603 4 0.484697 0.911737 0.353543
604 1 0.498616 0.892733 0.326457
605 3 0.513657 0.899491 0.334016
606 4 0.498466 0.89387 0.314094
607 1 0.523685 0.882562 0.336063
608 3 0.527127 0.892131 0.351024
609 4 0.531842 0.885573 0.328031
610 1 0.533039 0.878613 0.36378
611 3 0.547931 0.880487 0.373307
612 4 0.529073 0.871253 0.371811
613 1 0.560278 0.878948 0.355512
614 3 0.558632 0.892599 0.34748
615 4 0.56387 0.872457 0.346457
616 1 0.576891 0.899558 0.355669
617 3 0.563796 0.90799 0.363386
618 5 0.572776 0.842687 0.329083
619 1 0.574123 0.923916 0.364961
620 3 0.570231 0.9286 0.347323
621 4 0.582728 0.930072 0.367402
622 1 0.551373 0.937099 0.353307
623 3 0.554441 0.944928 0.337638
624 4 0.54374 0.941649 0.36063
625 1 0.570381 0.955501 0.346535
626 3 0.582354 0.956973 0.332441
627 4 0.576293 0.960921 0.354724
628 1 0.585422 0.937835 0.329685
629 3 0.583776 0.927061 0.315984
630 4 0.59313 0.931611 0.334961
631 1 0.563347 0.924786 0.31811
632 3 0.561101 0.932481 0.301339
633 4 0.552945 0.92579 0.322205
634 1 0.565143 0.917358 0.288898
635 3 0.546958 0.918161 0.288189
636 4 0.56851 0.908191 0.285669
637 1 0.546734 0.927931 0.269843
638 3 0.547706 0.914481 0.260236
639 4 0.548155 0.935158 0.261181
640 1 0.527202 0.910064 0.263622
641 3 0.518895 0.921641 0.253543
642 4 0.522188 0.905447 0.273465
643 1 0.5055 0.909863 0.243071
644 3 0.497942 0.918763 0.256299
645 4 0.499963 0.901231 0.239528
646 1 0.482676 0.924652 0.242677
647 3 0.483649 0.938771 0.251496
648 4 0.477064 0.921708 0.252913
649 1 0.489636 0.948073 0.233622
650 3 0.481329 0.961122 0.240394
651 4 0.494724 0.949411 0.222677
652 1 0.469954 0.947671 0.22
653 3 0.465165 0.935693 0.231732
654 4 0.461947 0.953225 0.214803
655 1 0.460001 0.924317 0.214488
656 3 0.473921 0.916622 0.208504
657 4 0.450198 0.923983 0.207323
658 1 0.465913 0.89909 0.214095
659 3 0.468533 0.900428 0.195591
660 4 0.457756 0.891863 0.213465
661 1 0.485295 0.889454 0.195039
662 3 0.472499 0.878279 0.191811
663 4 0.495922 0.88584 0.19685
664 1 0.476315 0.877543 0.170945
665 3 0.491057 0.871587 0.163622
666 4 0.472574 0.884034 0.162047
667 1 0.483724 0.854925 0.159764
668 3 0.48552 0.847564 0.142992
669 4 0.482077 0.845958 0.165433
670 1 0.470778 0.857535 0.13315
671 3 0.464641 0.872725 0.132756
672 4 0.461348 0.851312 0.132677
673 1 0.468233 0.874732 0.110787
674 3 0.450947 0.870918 0.111339
675 4 0.472648 0.872725 0.0995276
676 1 0.444885 0.887045 0.102283
677 3 0.426775 0.887446 0.106929
678 4 0.44249 0.880688 0.0926772
679 1 0.429993 0.891261 0.128425
680 3 0.435232 0.906986 0.130157
681 4 0.432538 0.887179 0.139449
682 1 0.416972 0.914347 0.126535
683 3 0.414278 0.917024 0.145118
684 4 0.405598 0.915886 0.122047
685 1 0.423034 0.934288 0.144331
686 3 0.409938 0.94185 0.13315
687 4 0.432912 0.93924 0.145669
688 1 0.405298 0.953292 0.149921
689 3 0.419068 0.962192 0.144646
690 4 0.401557 0.954497 0.161102
691 1 0.407468 0.976914 0.14
692 3 0.393026 0.985747 0.143228
693 4 0.407917 0.976646 0.127953
694 1 0.417122 0.990766 0.154173
695 3 0.414428 0.980728 0.16937
696 4 0.42019 0.999732 0.159843
697 1 0.432538 0.971159 0.167008
698 3 0.443688 0.981598 0.176063
699 4 0.44062 0.965337 0.161496
700 1 0.43845 0.974371 0.195748
701 3 0.456709 0.974103 0.194016
702 4 0.437551 0.965404 0.20252
703 1 0.459478 0.989628 0.20622
704 3 0.460076 0.980996 0.22189
705 4 0.45828 0.999465 0.208819
706 1 0.479907 0.978854 0.22315
707 3 0.482377 0.99284 0.232441
708 4 0.489935 0.977315 0.219921
709 1 0.477363 0.985078 0.251496
710 3 0.490085 0.991435 0.261339
711 5 0.478186 0.924462 0.241022
712 1 0.502133 0.975241 0.260866
713 3 0.504677 0.963062 0.24937
714 4 0.503929 0.9733 0.272283
715 1 0.524209 0.965672 0.246142
716 3 0.53259 0.951619 0.248976
717 4 0.532515 0.970824 0.240472
718 1 0.531093 0.951887 0.269843
719 3 0.52578 0.937768 0.276693
720 4 0.535209 0.955768 0.279921
721 1 0.506473 0.938035 0.269291
722 3 0.500861 0.945463 0.285197
723 5 0.514106 0.86779 0.247579
724 1 0.483948 0.934489 0.286772
725 3 0.48552 0.920838 0.295433
726 4 0.473322 0.931879 0.283543
727 1 0.4945 0.927329 0.313307
728 3 0.484397 0.915351 0.320709
729 4 0.501235 0.931946 0.321102
730 1 0.468158 0.927061 0.323228
731 3 0.462546 0.938504 0.31189
732 4 0.465464 0.929738 0.334094
733 1 0.445259 0.929537 0.305984
734 3 0.436953 0.93489 0.321811
735 4 0.438225 0.922444 0.30126
736 1 0.427075 0.948608 0.31189
737 3 0.412707 0.938571 0.311575
738 4 0.425803 0.956504 0.303543
739 1 0.404475 0.945731 0.32937
740 3 0.404026 0.960653 0.33685
741 4 0.405223 0.939641 0.33937
742 1 0.383372 0.963664 0.331417
743 3 0.368854 0.955835 0.337402
744 4 0.378283 0.967746 0.32189
745 1 0.365786 0.966743 0.355433
746 3 0.365861 0.951954 0.362205
747 4 0.354337 0.965471 0.352598
748 1 0.380678 0.956839 0.377323
749 3 0.378583 0.96333 0.394016
750 4 0.392053 0.959248 0.375591
751 1 0.370052 0.947404 0.40378
752 3 0.385243 0.943121 0.411339
753 4 0.364664 0.938571 0.404803
754 1 0.38427 0.955634 0.428268
755 3 0.385393 0.953025 0.446299
756 4 0.385542 0.965873 0.429921
757 1 0.371399 0.939106 0.445197
758 3 0.377834 0.932481 0.460709
759 4 0.362868 0.932548 0.441496
760 1 0.393624 0.92405 0.451575
761 3 0.404999 0.927864 0.466142
762 4 0.399761 0.919165 0.442835
763 1 0.409264 0.944526 0.459449
764 3 0.407992 0.946601 0.477323
765 4 0.411659 0.953694 0.454173
766 1 0.387413 0.950616 0.477717
767 3 0.387413 0.944459 0.495197
768 4 0.376637 0.953627 0.473858
769 1 0.38674 0.926325 0.48811
770 3 0.397067 0.923247 0.503622
771 4 0.383596 0.918027 0.48189
772 1 0.414802 0.925656 0.493228
773 3 0.419891 0.931678 0.510709
774 4 0.42266 0.927463 0.484488
775 1 0.411135 0.947805 0.508504
776 3 0.409639 0.948541 0.527008
777 5 0.410836 0.892298 0.477597
778 1 0.390032 0.941582 0.526772
779 3 0.394896 0.934288 0.543622
780 4 0.379032 0.941448 0.524016
781 1 0.403203 0.920035 0.532913
782 3 0.415101 0.919366 0.547323
783 4 0.403951 0.912607 0.525039
784 1 0.427673 0.931745 0.538976
785 3 0.430667 0.936296 0.557402
786 4 0.435007 0.935961 0.531102
787 1 0.414652 0.947939 0.558504
788 3 0.412258 0.941983 0.576378
789 4 0.407468 0.955434 0.555984
790 1 0.399461 0.927931 0.570394
791 3 0.406496 0.919767 0.585039
792 4 0.390481 0.922444 0.564567
793 1 0.424456 0.916154 0.574409
794 3 0.432612 0.918094 0.590551
795 4 0.432014 0.913678 0.566142
796 1 0.435755 0.937968 0.587559
797 3 0.434334 0.938571 0.60622
798 4 0.436429 0.947203 0.581575
799 1 0.413904 0.936362 0.607244
800 3 0.416074 0.927128 0.622835
801 4 0.402754 0.936429 0.604173
802 1 0.418768 0.911469 0.612047
803 3 0.430143 0.907254 0.625906
804 4 0.417272 0.903105 0.604567
805 1 0.447055 0.913611 0.614803
806 3 0.456035 0.916354 0.631024
807 4 0.453491 0.915953 0.604331
808 1 0.447729 0.933753 0.633465
809 3 0.454988 0.933953 0.649685
810 4 0.442565 0.94292 0.631732
811 1 0.441218 0.926325 0.662283
812 3 0.454838 0.923648 0.674016
813 4 0.431266 0.921975 0.665433
814 1 0.462546 0.908324 0.663228
815 3 0.47871 0.914748 0.668661
816 4 0.463369 0.899759 0.65685
817 1 0.480656 0.926526 0.65252
818 3 0.488139 0.934823 0.666535
819 4 0.479533 0.93121 0.641339
820 1 0.470329 0.944058 0.671732
821 3 0.47871 0.943255 0.689213
822 4 0.460151 0.948675 0.671181
823 1 0.470478 0.927931 0.695354
824 3 0.48552 0.927529 0.706142
825 4 0.464566 0.919366 0.697795
826 1 0.497493 0.920302 0.691732
827 3 0.510739 0.929069 0.698346
828 4 0.501983 0.91341 0.683622
829 1 0.508045 0.943522 0.684724
830 3 0.514406 0.952623 0.699606
831 4 0.505425 0.949746 0.675512
832 1 0.495173 0.952222 0.709843
833 3 0.505425 0.951686 0.725276
834 4 0.483574 0.950816 0.711496
835 1 0.506398 0.933753 0.725748
836 3 0.522862 0.935158 0.73315
837 4 0.504902 0.923381 0.725669
838 1 0.53274 0.940177 0.714331
839 3 0.54404 0.951486 0.722283
840 4 0.537155 0.938838 0.703465
841 1 0.530195 0.965471 0.719764
842 3 0.535359 0.97049 0.73748
843 4 0.522637 0.972297 0.713701
844 1 0.518746 0.962728 0.747323
845 3 0.530046 0.950482 0.750866
846 4 0.508344 0.959181 0.750236
847 1 0.535508 0.955634 0.771024
848 3 0.532066 0.944259 0.783386
849 4 0.542767 0.962058 0.776063
850 1 0.513956 0.951419 0.791339
851 3 0.495922 0.950549 0.792913
852 4 0.513807 0.957575 0.801417
853 1 0.492479 0.948274 0.770945
854 3 0.484547 0.962259 0.777087
855 4 0.485595 0.939976 0.774173
856 1 0.473322 0.963597 0.758346
857 3 0.461947 0.95724 0.770157
858 4 0.470104 0.96333 0.746535
859 1 0.4493 0.973635 0.771024
860 3 0.44032 0.961724 0.762441
861 4 0.444286 0.982133 0.766457
862 1 0.430592 0.956304 0.781653
863 3 0.418244 0.950348 0.770079
864 4 0.427748 0.954028 0.793071
865 1 0.407618 0.965404 0.767165
866 3 0.404176 0.960185 0.749291
867 4 0.402754 0.974639 0.768898
868 1 0.42266 0.967144 0.740472
869 3 0.422435 0.953694 0.73
870 4 0.432014 0.97243 0.738031
871 1 0.432163 0.942586 0.744882
872 3 0.421836 0.931143 0.738031
873 4 0.44032 0.939441 0.752677
874 1 0.405672 0.93382 0.751339
875 3 0.397441 0.927663 0.736063
876 5 0.415251 0.867016 0.709665
877 1 0.393849 0.944325 0.72748
878 3 0.395495 0.936697 0.710709
879 4 0.394373 0.954631 0.725827
880 1 0.416673 0.936764 0.710709
881 3 0.415925 0.923247 0.701102
882 4 0.427224 0.940779 0.711417
883 1 0.414054 0.91167 0.719528
884 3 0.402904 0.902503 0.709843
885 4 0.415625 0.908927 0.731181
886 1 0.386291 0.913142 0.713465
887 3 0.380753 0.910064 0.695512
888 4 0.378732 0.919901 0.718189
889 1 0.392128 0.921842 0.685906
890 3 0.394073 0.909797 0.673386
891 4 0.396842 0.930875 0.68315
892 1 0.413605 0.904979 0.682362
893 3 0.410911 0.890525 0.674016
894 4 0.422435 0.906451 0.689843
895 1 0.396468 0.884837 0.687717
896 3 0.388161 0.878747 0.672598
897 4 0.392053 0.881491 0.698425
898 1 0.374542 0.89193 0.671339
899 3 0.372746 0.889521 0.652362
900 4 0.366385 0.898421 0.675118
901 1 0.39123 0.89909 0.647559
902 3 0.396917 0.887112 0.635276
903 4 0.399237 0.906049 0.648504
904 1 0.403353 0.876204 0.652913
905 3 0.397366 0.865699 0.640315
906 5 0.399611 0.813686 0.614333
907 1 0.379181 0.862152 0.649685
908 3 0.373419 0.858539 0.631811
909 4 0.369378 0.861617 0.656693
910 1 0.372521 0.877476 0.625354
911 3 0.376861 0.872457 0.608504
912 4 0.371623 0.887915 0.625906
913 1 0.397815 0.873528 0.611417
914 3 0.398788 0.860278 0.601024
915 4 0.408292 0.877275 0.615197
916 1 0.39542 0.848166 0.61874
917 3 0.387563 0.838464 0.605984