LAMMPS protain data file

        8634  atoms
       11502  bonds
           0  angles
           0  dihedrals
           0  impropers

           5  atom types
           5  bond types
           0  angle types
           0  dihedral types
           0  improper types

-200.0	200.0	xlo xhi
-200.0	200.0	ylo yhi
-200.0	200.0	zlo zhi

Masses

           1	27.0
           2	14.0
           3	28.0
           4	60.0
           5	60.0

Atoms

           1	1	1	1	0.0	75.68	135.09	107.43
           2	1	1	3	0.0	74.4	137.14	107.16
           3	1	1	4	0.0	74.6	134.1	108.04
           4	1	2	1	0.0	73.88	136.75	104.43
           5	1	2	3	0.0	71.81	135.96	105.17
           6	1	2	4	0.0	74.05	136.39	102.95
           7	1	3	1	0.0	70.34	138.27	104.91001
           8	1	3	3	0.0	69.92	137.16	102.83
           9	1	3	4	0.0	69.94	139.79	104.64
          10	1	4	1	0.0	67.51	136.1	103.56
          11	1	4	3	0.0	67.46	135.91	101.1
          12	1	4	4	0.0	66.25	135.78	104.41999
          13	1	5	1	0.0	66.38	138.52	100.77
          14	1	5	3	0.0	67.55	138.32	98.72
          15	1	5	4	0.0	65.72	139.94	101.02
          16	1	6	1	0.0	69.99	139.32	99.87
          17	1	6	3	0.0	70.99	138.02	98.02
          18	1	6	4	0.0	71.15	139.97	100.78
          19	1	7	1	0.0	71.0	135.61	99.39
          20	1	7	3	0.0	70.47	134.42	97.39
          21	1	7	4	0.0	71.25	134.51	100.46
          22	1	8	1	0.0	67.76	134.78	97.48001
          23	1	8	3	0.0	67.52	134.9	95.12
          24	1	8	4	0.0	66.31	134.87	98.16
          25	1	9	1	0.0	68.47	137.57	95.03
          26	1	9	3	0.0	69.97	137.2	93.2
          27	1	9	4	0.0	68.57	139.03	95.64
          28	1	10	1	0.0	72.09	136.65	94.87
          29	1	10	3	0.0	72.7	134.96	93.17
          30	1	10	4	0.0	73.19	136.62	96.0
          31	1	11	1	0.0	71.15	132.96	94.25001
          32	1	11	3	0.0	70.95	132.41	92.0
          33	1	11	4	0.0	70.64	132.02	95.340004
          34	1	12	1	0.0	68.53	133.93	91.68
          35	1	12	3	0.0	69.44	133.87	89.41
          36	1	12	4	0.0	67.24	134.79	92.03001
          37	1	13	1	0.0	70.94	136.16	89.59
          38	1	13	3	0.0	72.53	135.2	87.99
          39	1	13	4	0.0	71.54	137.46	90.19999
          40	1	14	1	0.0	73.98	133.76	89.99
          41	1	14	3	0.0	74.32	132.23	88.26
          42	1	14	4	0.0	74.48	133.07	91.32
          43	1	15	1	0.0	71.96	130.92	88.72001
          44	1	15	3	0.0	71.86	130.45	86.42
          45	1	15	4	0.0	70.65	130.37	89.32
          46	1	16	1	0.0	70.62	132.95	85.68
          47	1	16	3	0.0	71.92	132.65	83.66
          48	1	16	4	0.0	69.89	134.32	85.73
          49	1	17	1	0.0	74.33	133.69	84.66
          50	1	17	3	0.0	75.59	132.09	83.46
          51	1	17	4	0.0	75.35	134.56	85.45
          52	1	18	1	0.0	75.36	129.95	84.99
          53	1	18	3	0.0	75.23	128.79	82.87
          54	1	18	4	0.0	75.21	129.07	86.189995
          55	1	19	1	0.0	72.49	129.06	82.69
          56	1	19	3	0.0	73.12	129.2	80.45
          57	1	19	4	0.0	70.96	129.01	82.98
          58	1	20	1	0.0	73.49	131.95	80.42
          59	1	20	3	0.0	74.9	131.56	78.53
          60	1	20	4	0.0	73.71	133.39	80.96
          61	1	21	1	0.0	77.07	130.72	80.14
          62	1	21	3	0.0	77.5	129.15	78.39
          63	1	21	4	0.0	78.08	130.67	81.26
          64	1	22	1	0.0	75.88	127.16	79.38
          65	1	22	3	0.0	75.54	126.56	77.06
          66	1	22	4	0.0	74.98	126.26	80.35
          67	1	23	1	0.0	73.68	128.51	76.8
          68	1	23	3	0.0	74.71	128.78	74.59
          69	1	23	4	0.0	72.63	129.6	77.08
          70	1	24	1	0.0	76.82	130.34	75.46
          71	1	24	3	0.0	78.19	129.19	73.92
          72	1	24	5	0.0	75.61	123.13730057	70.26006587
          73	1	25	1	0.0	78.55	126.91	75.49
          74	1	25	3	0.0	78.54	125.68001	73.51
          75	1	25	4	0.0	78.83	125.96	76.7
          76	1	26	1	0.0	75.86	125.30999	73.4
          77	1	26	3	0.0	75.34	125.83	71.15
          78	1	26	4	0.0	74.61	124.600006	73.91
          79	1	27	1	0.0	75.64	128.38	71.18
          80	1	27	3	0.0	76.93	127.93	69.25
          81	1	27	4	0.0	75.38	129.87	71.51
          82	1	28	1	0.0	79.41	127.79	70.5
          83	1	28	3	0.0	80.05	126.06	68.88
          84	1	28	4	0.0	80.63	128.13	71.34
          85	1	29	1	0.0	78.95	123.98	70.08
          86	1	29	3	0.0	78.49	123.13	67.92
          87	1	29	4	0.0	78.55	122.97	71.19
          88	1	30	1	0.0	75.93	124.28	67.72
          89	1	30	3	0.0	76.2	124.51	65.41
          90	1	30	4	0.0	74.5	124.53999	68.28
          91	1	31	1	0.0	77.42	127.03	65.39
          92	1	31	3	0.0	78.5	126.4	63.319996
          93	1	31	4	0.0	77.85	128.51	65.71
          94	1	32	1	0.0	80.37	124.68	64.47
          95	1	32	3	0.0	78.91	122.82001	63.74
          96	1	32	4	0.0	81.32	124.16999	65.54
          97	1	33	1	0.0	79.93	122.8	61.21
          98	1	33	3	0.0	81.52	121.17	62.12
          99	1	33	4	0.0	80.44	123.3	59.85
         100	1	34	1	0.0	79.97	118.95	61.29
         101	1	34	3	0.0	80.25	117.09	59.82
         102	1	34	4	0.0	78.73	118.16	61.74
         103	1	35	1	0.0	81.47	118.82001	57.72
         104	1	35	3	0.0	83.46	118.15	58.86
         105	1	35	4	0.0	81.79	120.15001	56.89
         106	1	36	1	0.0	83.86	116.04	56.93
         107	1	36	3	0.0	85.63	117.549995	56.51
         108	1	36	4	0.0	83.52	115.1	55.790005
         109	1	37	1	0.0	87.52	115.94	57.950005
         110	1	37	3	0.0	88.46	117.560005	59.470005
         111	1	37	4	0.0	88.37	116.52	56.82
         112	1	38	1	0.0	86.450005	116.97	61.43
         113	1	38	3	0.0	87.93	118.29	62.88
         114	1	38	4	0.0	85.19	116.350006	62.18
         115	1	39	1	0.0	89.6	116.13	63.4
         116	1	39	3	0.0	91.86	116.670006	63.28
         117	1	39	4	0.0	89.87999	114.62	63.76
         118	1	40	1	0.0	91.66	118.23	60.92
         119	1	40	3	0.0	92.09	120.64	60.460003
         120	1	40	4	0.0	91.74	117.83	59.410004
         121	1	41	1	0.0	89.72	121.52	61.62
         122	1	41	3	0.0	89.41	121.47	64.03
         123	1	41	4	0.0	88.26	121.560005	61.18
         124	1	42	1	0.0	90.26	124.08	64.42
         125	1	42	3	0.0	88.85	124.0	66.28
         126	1	42	4	0.0	90.98	125.34	64.44
         127	1	43	1	0.0	86.54	125.09	64.89
         128	1	43	3	0.0	85.56	124.04	66.86
         129	1	43	4	0.0	85.59	125.67	63.790005
         130	1	44	1	0.0	85.82	121.44	66.12
         131	1	44	3	0.0	85.75	121.1	68.5
         132	1	44	4	0.0	86.31	120.3	65.27
         133	1	45	1	0.0	88.45	121.7	68.91
         134	1	45	3	0.0	87.73	122.61	71.09
         135	1	45	4	0.0	90.04	121.78	68.78
         136	1	46	1	0.0	87.08999	125.03	70.26
         137	1	46	3	0.0	85.41	124.59	71.96
         138	1	46	4	0.0	87.04	126.42	69.62
         139	1	47	1	0.0	83.64	123.20999	70.26
         140	1	47	3	0.0	83.12	121.98	72.26
         141	1	47	4	0.0	82.89	122.61	69.02
         142	1	48	1	0.0	85.26	120.45	72.34
         143	1	48	3	0.0	85.2	120.62	74.72
         144	1	48	4	0.0	86.43	119.49	72.05
         145	1	49	1	0.0	86.57001	123.07	74.65
         146	1	49	3	0.0	85.1	123.84	76.54
         147	1	49	4	0.0	87.51	124.28999	74.15
         148	1	50	1	0.0	82.99	124.48	75.02
         149	1	50	3	0.0	81.59	123.69	76.81
         150	1	50	4	0.0	82.18	124.85	73.82
         151	1	51	1	0.0	81.77	120.89	76.02
         152	1	51	3	0.0	81.67	120.91001	78.4
         153	1	51	4	0.0	81.98	119.57	75.29
         154	1	52	1	0.0	84.37	120.979996	78.78
         155	1	52	3	0.0	83.79	121.82	80.97
         156	1	52	4	0.0	85.98	120.94	78.56
         157	1	53	1	0.0	83.35	124.51	80.09
         158	1	53	3	0.0	81.64	124.3	81.89
         159	1	53	4	0.0	83.35	125.74	79.17
         160	1	54	1	0.0	79.64	123.270004	80.08
         161	1	54	3	0.0	78.69	122.17	81.99
         162	1	54	4	0.0	78.84	122.92	78.81
         163	1	55	1	0.0	80.46	119.83001	81.49
         164	1	55	3	0.0	80.31	119.7	83.92
         165	1	55	4	0.0	81.49	118.95999	80.76
         166	1	56	1	0.0	82.33	121.69	84.22
         167	1	56	3	0.0	81.11	122.35	86.21
         168	1	56	4	0.0	83.61	122.47	83.93
         169	1	57	1	0.0	79.53	124.28999	84.87
         170	1	57	3	0.0	78.14	124.2	86.76999
         171	1	57	5	0.0	80.58	117.59748436	79.44903581
         172	1	58	1	0.0	77.0	121.59	86.33
         173	1	58	3	0.0	77.06	121.25	88.75
         174	1	58	4	0.0	76.66	120.25	85.58
         175	1	59	1	0.0	79.69	120.58	88.85
         176	1	59	3	0.0	79.73	121.82	90.88
         177	1	59	4	0.0	81.09	119.99	88.62
         178	1	60	1	0.0	80.23	124.18	89.68001
         179	1	60	3	0.0	78.93	124.979996	91.5
         180	1	60	4	0.0	80.72	125.34	88.81
         181	1	61	1	0.0	76.54	125.15	89.92
         182	1	61	3	0.0	75.51	126.06999	91.78001
         183	1	61	4	0.0	75.5	124.93	88.82
         184	1	62	1	0.0	75.18	123.76	93.30999
         185	1	62	3	0.0	75.64	124.88	95.329994
         186	1	62	4	0.0	75.04	122.22	93.66
         187	1	63	1	0.0	78.42	124.8	94.98
         188	1	63	3	0.0	77.99	126.9	96.19
         189	1	63	4	0.0	79.83	124.46	94.50001
         190	1	64	1	0.0	77.82	128.5	93.92
         191	1	64	3	0.0	76.54	129.85	95.43
         192	1	64	4	0.0	77.83	129.08	92.5
         193	1	65	1	0.0	74.3	128.43	95.32
         194	1	65	3	0.0	73.84	128.7	97.67
         195	1	65	4	0.0	73.06	127.92	94.61
         196	1	66	1	0.0	75.49	126.450005	98.380005
         197	1	66	3	0.0	75.84	127.64	100.31
         198	1	66	4	0.0	76.3	125.17	98.38999
         199	1	67	1	0.0	78.16	129.04	99.36
         200	1	67	3	0.0	78.01	131.35	100.04
         201	1	67	4	0.0	79.53	129.08	98.58
         202	1	68	1	0.0	75.46	131.81	98.88
         203	1	68	3	0.0	74.16	132.23	100.89
         204	1	68	4	0.0	74.99	132.22	97.490005
         205	1	69	1	0.0	72.19	130.38	100.43
         206	1	69	3	0.0	71.62	130.02	102.76999
         207	1	69	4	0.0	71.39	129.29	99.76
         208	1	70	1	0.0	73.98	128.68	103.49
         209	1	70	3	0.0	76.25	129.44	103.04
         210	1	70	4	0.0	74.09	127.17	103.54
         211	1	71	1	0.0	76.97	129.28	105.73
         212	1	71	3	0.0	77.98	127.25	104.8
         213	1	71	5	0.0	75.71	121.92924535	99.7098561
         214	1	72	1	0.0	80.56	127.98	105.2
         215	1	72	3	0.0	80.34	126.59	107.24
         216	1	72	4	0.0	81.76	128.87	105.39
         217	1	73	1	0.0	80.92	124.25	105.99
         218	1	73	3	0.0	81.57	121.99	105.80001
         219	1	73	4	0.0	79.47	123.84	106.03
         220	1	74	1	0.0	83.08	122.21	103.41
         221	1	74	3	0.0	81.84	120.41999	102.59
         222	1	74	4	0.0	84.53	122.73	102.98
         223	1	75	1	0.0	81.48	121.2	99.96
         224	1	75	3	0.0	81.84	118.91	99.22
         225	1	75	4	0.0	81.13	122.23	98.87
         226	1	76	1	0.0	84.38	119.51	98.24
         227	1	76	3	0.0	86.38999	120.16999	99.63
         228	1	76	4	0.0	84.84	120.11	96.9
         229	1	77	1	0.0	87.42	117.619995	99.7
         230	1	77	3	0.0	88.409996	118.56	97.73
         231	1	77	4	0.0	87.39	116.11	99.47
         232	1	78	1	0.0	90.71	119.38	99.07
         233	1	78	3	0.0	91.5	119.8	96.85
         234	1	78	4	0.0	91.78001	119.82	100.16
         235	1	79	1	0.0	92.11	117.22	96.27
         236	1	79	3	0.0	91.47	117.53	93.98
         237	1	79	4	0.0	92.600006	115.76	96.52
         238	1	80	1	0.0	88.73999	117.28	94.55
         239	1	80	3	0.0	88.5	119.12	93.01
         240	1	80	4	0.0	87.35	116.8	95.11
         241	1	81	1	0.0	88.37	121.19	94.93
         242	1	81	3	0.0	89.10999	122.55	93.15
         243	1	81	4	0.0	88.2	122.09	96.19
         244	1	82	1	0.0	91.82	121.85	93.73
         245	1	82	3	0.0	92.02	122.46	91.47
         246	1	82	4	0.0	92.95	121.05999	94.34
         247	1	83	1	0.0	91.14001	119.87	90.53
         248	1	83	3	0.0	90.11	121.1	88.72001
         249	1	83	4	0.0	90.95999	118.4	90.36
         250	1	84	1	0.0	87.71001	121.51	90.19999
         251	1	84	3	0.0	87.35	123.399994	88.77
         252	1	84	4	0.0	86.57001	121.33	91.270004
         253	1	85	1	0.0	89.13	124.94	89.97
         254	1	85	3	0.0	90.38999	125.91	88.27
         255	1	85	4	0.0	89.299995	125.92	91.11
         256	1	86	1	0.0	92.28	123.84	88.01
         257	1	86	3	0.0	92.13	124.14	85.64
         258	1	86	4	0.0	93.299995	122.71	88.47001
         259	1	87	1	0.0	89.67	122.83	85.3
         260	1	87	3	0.0	89.619995	124.32	83.42
         261	1	87	4	0.0	88.65	121.810005	85.34
         262	1	88	1	0.0	88.53999	126.380005	85.18
         263	1	88	3	0.0	89.64	127.57	83.45
         264	1	88	4	0.0	87.81	127.06	86.38999
         265	1	89	1	0.0	92.03001	127.71001	84.99
         266	1	89	3	0.0	92.96	127.95	82.75
         267	1	89	4	0.0	92.97	127.62	86.15
         268	1	90	1	0.0	93.13	125.25	82.24
         269	1	90	3	0.0	93.0	125.94999	79.96
         270	1	90	4	0.0	93.19	123.75	82.55
         271	1	91	1	0.0	90.18	126.02	79.97
         272	1	91	3	0.0	90.439995	128.02	78.63
         273	1	91	4	0.0	88.68	125.67	80.29
         274	1	92	1	0.0	90.53	129.77	80.62
         275	1	92	3	0.0	92.13	130.84	79.17
         276	1	92	4	0.0	90.4	130.41	81.98
         277	1	93	1	0.0	94.29	129.48	80.03
         278	1	93	3	0.0	94.98	129.73	77.71
         279	1	93	4	0.0	95.31	128.52	80.63
         280	1	94	1	0.0	93.46	127.52999	76.77
         281	1	94	3	0.0	93.38	128.69	74.64
         282	1	94	4	0.0	92.600006	126.21	76.76
         283	1	95	1	0.0	91.36	130.55	75.65
         284	1	95	3	0.0	92.45	132.33	74.44
         285	1	95	4	0.0	90.130005	131.09	76.49
         286	1	96	1	0.0	94.24	133.05	76.33
         287	1	96	3	0.0	95.96	133.37	74.64
         288	1	96	4	0.0	94.82001	133.29	77.82
         289	1	97	1	0.0	96.41999	130.63	74.32
         290	1	97	3	0.0	96.72001	131.04	71.99
         291	1	97	4	0.0	96.87	129.32	74.95
         292	1	98	1	0.0	93.83	130.65	71.38
         293	1	98	3	0.0	93.96	132.43	69.77
         294	1	98	4	0.0	92.36	130.04	71.34
         295	1	99	1	0.0	93.78	134.53	71.7
         296	1	99	3	0.0	95.29	135.86	70.37
         297	1	99	4	0.0	93.42	135.21	73.03
         298	1	100	1	0.0	97.52	134.37	71.27
         299	1	100	3	0.0	98.1	134.78	69.07
         300	1	100	4	0.0	98.68	133.66	72.11
         301	1	101	1	0.0	97.32	132.32	68.13
         302	1	101	3	0.0	97.04001	133.59	66.1
         303	1	101	4	0.0	96.63	130.9	68.1
         304	1	102	1	0.0	94.49	134.45	66.61
         305	1	102	3	0.0	95.06	136.54	65.68
         306	1	102	4	0.0	93.03	134.37	66.98
         307	1	103	1	0.0	96.409996	137.67	67.66
         308	1	103	3	0.0	97.67	138.65	65.95
         309	1	103	4	0.0	96.98999	138.09	69.01
         310	1	104	1	0.0	99.3	136.36	65.51
         311	1	104	3	0.0	98.93	137.23	63.23
         312	1	104	4	0.0	100.13	135.1	65.66
         313	1	105	1	0.0	96.63	135.97	62.73
         314	1	105	3	0.0	96.23	137.9	61.31
         315	1	105	4	0.0	95.52	134.94	62.64
         316	1	106	1	0.0	95.31	139.55	63.350002
         317	1	106	3	0.0	96.39	141.37	62.32
         318	1	106	4	0.0	94.59	139.99	64.7
         319	1	107	1	0.0	98.95999	140.71	63.11
         320	1	107	3	0.0	99.64	141.41	60.87
         321	1	107	4	0.0	100.16	140.51	64.02
         322	1	108	1	0.0	99.079994	138.95	59.58
         323	1	108	3	0.0	98.38999	140.3	57.68
         324	1	108	4	0.0	98.88	137.37	59.34
         325	1	109	1	0.0	95.90001	140.95	58.87
         326	1	109	3	0.0	96.01	143.13	57.91
         327	1	109	4	0.0	94.55	141.0	59.59
         328	1	110	1	0.0	97.9	144.07	59.87
         329	1	110	3	0.0	99.15	145.0	58.01
         330	1	110	4	0.0	98.31	144.39	61.3
         331	1	111	1	0.0	101.13	142.98	57.98
         332	1	111	3	0.0	101.67	140.75	58.51
         333	1	111	4	0.0	102.41	143.6	58.77
         334	1	112	1	0.0	101.810005	139.85	55.91
         335	1	112	3	0.0	104.07	139.67	56.29
         336	1	112	4	0.0	100.79001	139.15	54.900005
         337	1	113	1	0.0	102.93	140.46	52.92
         338	1	113	3	0.0	101.96	142.38	53.78
         339	1	113	4	0.0	104.01	140.62	51.890003
         340	1	114	1	0.0	100.05	142.69	51.68
         341	1	114	3	0.0	98.65	141.55	53.3
         342	1	114	4	0.0	99.36	142.56	50.360004
         343	1	115	1	0.0	97.53	143.82	54.34
         344	1	115	3	0.0	95.35	142.98	54.92
         345	1	115	4	0.0	97.549995	145.19	55.000004
         346	1	116	1	0.0	94.66	142.59	52.049995
         347	1	116	3	0.0	95.590004	140.32	52.51
         348	1	116	4	0.0	94.65	142.69	50.51
         349	1	117	1	0.0	93.22	139.0	52.580006
         350	1	117	3	0.0	93.79	138.06	50.51
         351	1	117	4	0.0	91.71001	138.69	52.67
         352	1	118	1	0.0	94.93	135.74	51.6
         353	1	118	3	0.0	94.56	134.27	53.470005
         354	1	118	4	0.0	96.48	136.02	51.62
         355	1	119	1	0.0	94.81	131.93	51.99
         356	1	119	3	0.0	97.08	131.9	52.740005
         357	1	119	4	0.0	94.87	130.88	50.840004
         358	1	120	1	0.0	96.5	130.62	55.11
         359	1	120	3	0.0	95.23	128.82	55.97
         360	1	120	4	0.0	96.409996	131.5	56.4
         361	1	121	1	0.0	97.29	126.89001	55.55
         362	1	121	3	0.0	96.7	126.95999	57.93
         363	1	121	4	0.0	98.63999	126.12001	55.44
         364	1	122	1	0.0	94.83	124.97	57.88
         365	1	122	3	0.0	95.26001	123.94	59.9
         366	1	122	4	0.0	93.54	124.45	57.27
         367	1	123	1	0.0	97.26	122.26	58.8
         368	1	123	3	0.0	98.25001	122.47	60.86
         369	1	123	4	0.0	98.14	121.54	57.730003
         370	1	124	1	0.0	99.47	124.97	60.34
         371	1	124	3	0.0	98.82001	125.28	62.7
         372	1	124	4	0.0	100.12	126.14	59.639996
         373	1	125	1	0.0	96.32	126.24	62.28
         374	1	125	3	0.0	95.93	125.15	64.57
         375	1	125	4	0.0	95.020004	126.83999	61.78
         376	1	126	1	0.0	95.73	122.54	63.43
         377	1	126	3	0.0	96.78	121.94999	65.47
         378	1	126	4	0.0	95.42	121.38	62.429996
         379	1	127	1	0.0	99.340004	122.31	64.61
         380	1	127	3	0.0	99.75	123.20999	66.76
         381	1	127	4	0.0	100.57	122.36	63.68
         382	1	128	1	0.0	98.71	125.66	66.4
         383	1	128	3	0.0	98.18	125.73	68.69
         384	1	128	4	0.0	98.35	127.05	65.8
         385	1	129	1	0.0	95.68	124.24	68.29
         386	1	129	3	0.0	96.25	123.12	70.35
         387	1	129	4	0.0	94.25001	123.98	67.79
         388	1	130	1	0.0	97.74	121.09	69.3
         389	1	130	3	0.0	98.87	121.30999	71.38
         390	1	130	4	0.0	98.15	119.87	68.49
         391	1	131	1	0.0	100.57	123.46001	70.41
         392	1	131	3	0.0	100.58	124.2	72.73
         393	1	131	4	0.0	101.39	124.21999	69.44
         394	1	132	1	0.0	98.22	125.76	72.42
         395	1	132	3	0.0	97.78	125.27	74.69
         396	1	132	4	0.0	97.15	126.51999	71.63
         397	1	133	1	0.0	96.55	122.79	74.18
         398	1	133	3	0.0	97.66	122.03	76.26
         399	1	133	4	0.0	95.73	121.85	73.28
         400	1	134	1	0.0	100.14	121.39	74.88
         401	1	134	3	0.0	101.19	122.03	76.92
         402	1	134	4	0.0	101.02	120.77	73.72
         403	1	135	1	0.0	101.490005	124.83	76.2
         404	1	135	3	0.0	101.14	125.32	78.56
         405	1	135	4	0.0	101.72	126.12001	75.35
         406	1	136	1	0.0	98.35	125.240005	78.34
         407	1	136	3	0.0	98.37001	124.97	80.7
         408	1	136	4	0.0	96.9	125.14	77.88
         409	1	137	1	0.0	98.89001	122.27	80.57
         410	1	137	3	0.0	100.06	122.57001	82.7
         411	1	137	4	0.0	99.01001	120.81	80.04
         412	1	138	1	0.0	102.35	123.6	81.41
         413	1	138	3	0.0	102.700005	125.05	83.14
         414	1	138	5	0.0	101.09	115.29043954	76.37044677
         415	1	139	1	0.0	101.41	127.340004	81.93
         416	1	139	3	0.0	100.58	127.96999	84.1
         417	1	139	4	0.0	101.02	128.33	80.81
         418	1	140	1	0.0	98.49	126.17	84.2
         419	1	140	3	0.0	98.57001	125.74999	86.6
         420	1	140	4	0.0	97.17	125.49999	83.73
         421	1	141	1	0.0	100.69	123.94	86.41
         422	1	141	3	0.0	101.22	124.47001	88.7
         423	1	141	4	0.0	101.560005	122.76999	86.12001
         424	1	142	1	0.0	102.58	126.73	88.45
         425	1	142	3	0.0	101.53	127.84	90.31
         426	1	142	4	0.0	103.55	127.75	87.84999
         427	1	143	1	0.0	99.15	128.55	89.05
         428	1	143	3	0.0	98.69001	128.85	91.27999
         429	1	143	4	0.0	98.09	129.0	88.02
         430	1	144	1	0.0	97.99999	126.34	91.98
         431	1	144	3	0.0	98.82001	126.76999	94.17
         432	1	144	4	0.0	97.62999	124.85999	91.7
         433	1	145	1	0.0	101.560005	125.99	93.45
         434	1	145	3	0.0	102.05001	127.71001	95.05
         435	1	145	4	0.0	102.73	125.45	92.65
         436	1	146	1	0.0	101.72	129.91	93.4
         437	1	146	3	0.0	101.13	131.06	95.44
         438	1	146	4	0.0	101.810005	130.88	92.23
         439	1	147	1	0.0	98.55	130.28	95.46001
         440	1	147	3	0.0	98.83	130.25	97.80001
         441	1	147	5	0.0	99.43	122.70758521	89.66009595
         442	1	148	1	0.0	99.84999	127.61	97.87999
         443	1	148	3	0.0	101.57	128.12	99.7
         444	1	148	4	0.0	100.09	126.03	97.61001
         445	1	149	1	0.0	103.04	129.78	98.25001
         446	1	149	3	0.0	102.69001	131.15	100.21
         447	1	149	4	0.0	103.93	130.26	97.02
         448	1	150	1	0.0	100.81	132.73	99.27999
         449	1	150	3	0.0	100.32	132.79	101.6
         450	1	150	4	0.0	99.93	133.57	98.46
         451	1	151	1	0.0	98.48	130.89	101.7
         452	1	151	3	0.0	97.99	128.8	100.53999
         453	1	151	4	0.0	97.10999	131.59	101.54
         454	1	152	1	0.0	98.53	127.16	102.75
         455	1	152	3	0.0	96.93	125.45	102.75
         456	1	152	4	0.0	99.5	126.6	103.87
         457	1	153	1	0.0	94.85	127.08999	103.56
         458	1	153	3	0.0	92.91001	126.33	102.55
         459	1	153	4	0.0	94.24	128.04	104.670006
         460	1	154	1	0.0	93.6	127.67	99.93
         461	1	154	3	0.0	91.41	126.9	99.62
         462	1	154	4	0.0	94.439995	127.99	98.69001
         463	1	155	1	0.0	92.18	124.26	99.19
         464	1	155	3	0.0	90.42	123.01001	100.18
         465	1	155	4	0.0	93.04001	123.26001	98.31999
         466	1	156	1	0.0	91.64	122.83999	102.69001
         467	1	156	3	0.0	90.36	123.05	104.71
         468	1	156	4	0.0	92.82	122.26	103.44
         469	1	157	1	0.0	89.14	125.490005	103.76
         470	1	157	3	0.0	88.3	126.05001	101.549995
         471	1	157	4	0.0	89.78	126.759995	104.51
         472	1	158	1	0.0	85.68	126.71	102.31
         473	1	158	3	0.0	85.72	124.91001	100.670006
         474	1	158	5	0.0	86.74	119.61737337	95.83759348
         475	1	159	1	0.0	84.75	126.67	98.62
         476	1	159	3	0.0	86.37001	128.43	98.74
         477	1	159	4	0.0	83.65	127.18	97.71
         478	1	160	1	0.0	88.26	127.17	97.2
         479	1	160	3	0.0	87.42	128.07	95.05
         480	1	160	4	0.0	89.29	126.06999	96.69
         481	1	161	1	0.0	88.64	130.6	95.45
         482	1	161	3	0.0	89.85	131.34	93.42999
         483	1	161	4	0.0	88.36	131.86	96.27
         484	1	162	1	0.0	92.27	130.39	94.31
         485	1	162	3	0.0	93.23001	132.31	93.21
         486	1	162	4	0.0	93.13	129.33	94.88
         487	1	163	1	0.0	94.09	133.41	95.63
         488	1	163	3	0.0	92.600006	134.81	94.38999
         489	1	163	4	0.0	95.52	133.27	95.079994
         490	1	164	1	0.0	93.16001	137.16	95.64
         491	1	164	3	0.0	95.29	137.94	95.15
         492	1	164	4	0.0	92.64	137.87	96.95
         493	1	165	1	0.0	94.19999	139.92	93.35
         494	1	165	3	0.0	95.41	141.22	94.97
         495	1	165	4	0.0	93.33	141.08	92.75
         496	1	166	1	0.0	97.84	141.05	93.85
         497	1	166	3	0.0	99.55	142.26	92.82
         498	1	166	4	0.0	98.509995	140.0	94.82001
         499	1	167	1	0.0	99.26001	140.79	90.34
         500	1	167	3	0.0	98.74	140.98	88.04
         501	1	167	4	0.0	99.99	139.52	89.96
         502	1	168	1	0.0	96.23	142.06	88.28999
         503	1	168	3	0.0	96.88	143.24	86.38999
         504	1	168	4	0.0	94.81	142.44	88.68
         505	1	169	1	0.0	97.72	145.53	87.68
         506	1	169	3	0.0	99.13	145.95	85.75
         507	1	169	4	0.0	97.85	146.73	88.69
         508	1	170	1	0.0	101.28	144.45	86.69001
         509	1	170	3	0.0	102.02	143.3	84.74
         510	1	170	4	0.0	102.31	144.25	87.84999
         511	1	171	1	0.0	100.07	141.11	85.01
         512	1	171	3	0.0	99.13	141.72	82.89
         513	1	171	5	0.0	100.34	130.83524073	79.4618213
         514	1	172	1	0.0	96.65	140.96	83.48
         515	1	172	3	0.0	96.09	142.23	81.51
         516	1	172	4	0.0	95.35	140.61	84.22
         517	1	173	1	0.0	96.52	144.76	82.84
         518	1	173	3	0.0	97.68001	145.06	80.75
         519	1	173	4	0.0	96.02	145.69	84.03
         520	1	174	1	0.0	99.75	146.37	81.68
         521	1	174	3	0.0	101.41	146.04	79.96
         522	1	174	4	0.0	100.53	147.34	82.58
         523	1	175	1	0.0	101.65	143.11	80.49
         524	1	175	3	0.0	101.36001	141.1	79.33
         525	1	175	4	0.0	102.50001	142.37	81.57
         526	1	176	1	0.0	98.79	141.51	78.57
         527	1	176	3	0.0	97.69	142.62	76.71
         528	1	176	4	0.0	98.16	140.25	79.24
         529	1	177	1	0.0	95.51	143.57	78.2
         530	1	177	3	0.0	95.35	145.32	76.51
         531	1	177	4	0.0	94.49	143.83	79.33
         532	1	178	1	0.0	97.42	146.81	77.31
         533	1	178	3	0.0	97.76	147.34	75.04
         534	1	178	4	0.0	98.28	147.71	78.29
         535	1	179	1	0.0	99.340004	145.2	74.33
         536	1	179	3	0.0	98.15	144.85	72.23
         537	1	179	4	0.0	100.45	144.25	74.62
         538	1	180	1	0.0	96.16	143.35	73.34
         539	1	180	3	0.0	94.98	144.63	71.61
         540	1	180	4	0.0	95.45	142.44	74.3
         541	1	181	1	0.0	94.34	146.77	73.41
         542	1	181	3	0.0	94.18	147.78	71.36
         543	1	181	4	0.0	94.17	147.62	74.66
         544	1	182	1	0.0	96.79001	148.53	71.16
         545	1	182	3	0.0	96.53999	148.34	68.77
         546	1	182	4	0.0	98.28	148.69	71.62
         547	1	183	1	0.0	96.88	145.48	68.81
         548	1	183	3	0.0	95.3	145.6	67.07
         549	1	183	4	0.0	97.36001	144.04	69.17
         550	1	184	1	0.0	93.04001	145.26	68.81
         551	1	184	3	0.0	91.83001	146.36	67.11
         552	1	184	4	0.0	92.16999	144.95	69.99
         553	1	185	1	0.0	92.88	149.05	68.0
         554	1	185	3	0.0	93.12	149.71	65.59
         555	1	185	4	0.0	93.14	150.27	68.96
         556	1	186	1	0.0	95.58001	148.68	65.28
         557	1	186	3	0.0	94.81	148.19	63.08
         558	1	186	4	0.0	97.0	148.13	65.39
         559	1	187	1	0.0	93.53	145.81	63.699997
         560	1	187	3	0.0	92.01	146.43	61.93
         561	1	187	4	0.0	93.26	144.51	64.47
         562	1	188	1	0.0	90.31	147.78	63.72
         563	1	188	3	0.0	89.96	149.0	61.699997
         564	1	188	4	0.0	89.62999	148.38	64.99
         565	1	189	1	0.0	92.25	150.74	62.13
         566	1	189	3	0.0	92.28	150.9	59.76
         567	1	189	4	0.0	93.46	151.46	62.83
         568	1	190	1	0.0	93.86	148.55	59.410004
         569	1	190	3	0.0	92.729996	148.43	57.34
         570	1	190	4	0.0	94.86	147.43	59.699997
         571	1	191	1	0.0	90.58	146.98	58.47
         572	1	191	3	0.0	88.96	147.98	57.05
         573	1	191	4	0.0	89.79	146.04	59.37
         574	1	192	1	0.0	88.94	150.4	58.5
         575	1	192	3	0.0	88.85	151.73	56.38
         576	1	192	4	0.0	88.7	151.3	59.75
         577	1	193	1	0.0	91.74	151.82	56.23
         578	1	193	3	0.0	91.61	151.34	53.8
         579	1	193	4	0.0	93.17	152.16	56.71
         580	1	194	1	0.0	91.36	148.56	54.109997
         581	1	194	3	0.0	89.619995	147.98	52.42
         582	1	194	4	0.0	91.84	147.19	54.520004
         583	1	195	1	0.0	87.49	149.12	53.8
         584	1	195	3	0.0	86.50001	149.74	51.670002
         585	1	195	4	0.0	86.63999	149.76	55.000004
         586	1	196	1	0.0	88.04	152.05	51.410004
         587	1	196	3	0.0	88.2	151.67	49.07
         588	1	196	4	0.0	88.71	153.41	51.84
         589	1	197	1	0.0	90.439995	149.83	49.24
         590	1	197	3	0.0	88.89	148.04	49.14
         591	1	197	4	0.0	91.71001	149.17	49.81
         592	1	198	1	0.0	89.37	147.55	46.429996
         593	1	198	3	0.0	90.95999	145.93	47.000004
         594	1	198	4	0.0	89.17	147.94	44.939995
         595	1	199	1	0.0	88.89	143.77	46.740005
         596	1	199	3	0.0	89.83	141.94	45.39
         597	1	199	4	0.0	87.56	143.19	47.11
         598	1	200	1	0.0	90.25001	143.45	43.14
         599	1	200	3	0.0	90.55	145.51	42.16
         600	1	200	4	0.0	89.41	142.97	41.93
         601	1	201	1	0.0	93.19	145.81	42.64
         602	1	201	3	0.0	95.06	144.46	42.92
         603	1	201	4	0.0	93.14	147.07	43.56
         604	1	202	1	0.0	96.85999	146.03	41.46
         605	1	202	3	0.0	97.14	146.61	43.78
         606	1	202	4	0.0	97.49999	147.06	40.51
         607	1	203	1	0.0	99.56	145.04	44.02
         608	1	203	3	0.0	101.23001	146.71	43.74
         609	1	203	4	0.0	100.52	143.82	43.81
         610	1	204	1	0.0	100.729996	147.87	46.29
         611	1	204	3	0.0	102.83	148.28	47.45
         612	1	204	4	0.0	99.81	148.55	47.350002
         613	1	205	1	0.0	103.84	145.74	46.939995
         614	1	205	3	0.0	104.4	146.38	44.88
         615	1	205	4	0.0	104.08	144.24	47.04
         616	1	206	1	0.0	106.86	147.56	45.52
         617	1	206	3	0.0	105.35	149.49	45.730003
         618	1	206	5	0.0	106.01	138.10525163	42.04643735
         619	1	207	1	0.0	106.78	150.89	43.85
         620	1	207	3	0.0	105.09	150.33	42.23
         621	1	207	4	0.0	108.02	151.57	43.09
         622	1	208	1	0.0	103.44	152.4	42.95
         623	1	208	3	0.0	102.27	153.47	41.15
         624	1	208	4	0.0	102.48	152.77	44.16
         625	1	209	1	0.0	104.57	154.59	40.09
         626	1	209	3	0.0	105.21	154.44	37.76
         627	1	209	4	0.0	105.72	155.63	40.33
         628	1	210	1	0.0	105.23001	151.68	37.69
         629	1	210	3	0.0	103.90001	149.97	38.75
         630	1	210	4	0.0	106.59	150.91	37.78
         631	1	211	1	0.0	102.37001	149.54	36.57
         632	1	211	3	0.0	103.29	148.71	34.52
         633	1	211	4	0.0	101.02	150.25	36.13
         634	1	212	1	0.0	103.17	145.94	35.33
         635	1	212	3	0.0	103.590004	145.27	33.07
         636	1	212	4	0.0	102.97	144.76	36.29
         637	1	213	1	0.0	100.88	145.57	32.24
         638	1	213	3	0.0	101.240005	147.92	31.64
         639	1	213	4	0.0	99.3	145.25	32.18
         640	1	214	1	0.0	101.42	147.43	28.95
         641	1	214	3	0.0	100.18	148.18	27.04
         642	1	214	4	0.0	102.73	147.11	28.180002
         643	1	215	1	0.0	98.01	146.56	27.46
         644	1	215	3	0.0	96.93	145.64	29.41
         645	1	215	4	0.0	98.27	145.31	26.469997
         646	1	216	1	0.0	94.38999	146.94	28.6
         647	1	216	3	0.0	93.79	148.35	30.499998
         648	1	216	4	0.0	93.810005	145.59	29.19
         649	1	217	1	0.0	95.329994	150.36	29.849998
         650	1	217	3	0.0	93.96	151.92	30.93
         651	1	217	4	0.0	96.46	151.24	29.27
         652	1	218	1	0.0	93.490005	151.16	27.4
         653	1	218	3	0.0	91.83001	149.54	28.03
         654	1	218	4	0.0	92.98999	152.33	26.56
         655	1	219	1	0.0	92.04	148.33	25.33
         656	1	219	3	0.0	94.08	147.16	24.83