ITEM: TIMESTEP
0
ITEM: NUMBER OF ATOMS
8634
ITEM: BOX BOUNDS ss ss ss
37.32 164.49
15.06 161.01
1.75 124.3
ITEM: ATOMS id type xs ys zs
1 1 0.301643 0.822405 0.862342
2 3 0.291578 0.836451 0.860139
3 4 0.293151 0.815622 0.867319
4 1 0.287489 0.833779 0.837862
5 3 0.271212 0.828366 0.8439
6 4 0.288826 0.831312 0.825785
7 1 0.259652 0.844193 0.841779
8 3 0.25635 0.836588 0.824806
9 4 0.256507 0.854608 0.839576
10 1 0.237399 0.829325 0.830763
11 3 0.237006 0.828023 0.81069
12 4 0.227491 0.827133 0.83778
13 1 0.228513 0.845906 0.807997
14 3 0.237713 0.844536 0.791269
15 4 0.223323 0.855635 0.810037
16 1 0.2569 0.851387 0.800653
17 3 0.264764 0.84248 0.785557
18 4 0.266022 0.855841 0.808078
19 1 0.264842 0.825968 0.796736
20 3 0.260675 0.817814 0.780416
21 4 0.266808 0.818431 0.805467
22 1 0.239365 0.820281 0.781151
23 3 0.237477 0.821103 0.761893
24 4 0.227963 0.820898 0.786699
25 1 0.244948 0.839397 0.761159
26 3 0.256743 0.836862 0.746226
27 4 0.245734 0.8494 0.766136
28 1 0.273414 0.833094 0.759853
29 3 0.27821 0.821514 0.745981
30 4 0.282063 0.832888 0.769074
31 1 0.266022 0.807811 0.754794
32 3 0.264449 0.804042 0.736434
33 4 0.262011 0.80137 0.763688
34 1 0.24542 0.814457 0.733823
35 3 0.252575 0.814046 0.7153
36 4 0.235276 0.820349 0.736679
37 1 0.264371 0.829736 0.716769
38 3 0.276873 0.823159 0.703713
39 4 0.269089 0.838643 0.721746
40 1 0.288276 0.813292 0.720033
41 3 0.290949 0.802809 0.705916
42 4 0.292207 0.808565 0.730885
43 1 0.272391 0.793834 0.70967
44 3 0.271605 0.790613 0.690902
45 4 0.26209 0.790065 0.714565
46 1 0.261854 0.807742 0.684863
47 3 0.272077 0.805687 0.66838
48 4 0.256114 0.817129 0.685271
49 1 0.291028 0.812813 0.67654
50 3 0.300936 0.80185 0.666748
51 4 0.299049 0.818774 0.682987
52 1 0.299127 0.787187 0.679233
53 3 0.298105 0.779239 0.661934
54 4 0.297948 0.781158 0.689025
55 1 0.276559 0.781089 0.660465
56 3 0.281513 0.782049 0.642187
57 4 0.264528 0.780747 0.662831
58 1 0.284422 0.800891 0.641942
59 3 0.29551 0.798219 0.62652
60 4 0.286152 0.810757 0.646348
61 1 0.312574 0.792463 0.639657
62 3 0.315955 0.781706 0.625377
63 4 0.320516 0.792121 0.648796
64 1 0.303216 0.768071 0.633456
65 3 0.300543 0.76396 0.614525
66 4 0.296139 0.761905 0.641371
67 1 0.285916 0.777321 0.612403
68 3 0.294016 0.779171 0.59437
69 4 0.27766 0.784789 0.614688
70 1 0.310608 0.78986 0.601469
71 3 0.321381 0.78198 0.588902
72 5 0.301093 0.740509 0.559038
73 1 0.324212 0.766358 0.601714
74 3 0.324133 0.757931 0.585557
75 4 0.326413 0.759849 0.611587
76 1 0.303059 0.755396 0.584659
77 3 0.29897 0.758959 0.566299
78 4 0.29323 0.750531 0.588821
79 1 0.301329 0.77643 0.566544
80 3 0.311473 0.773347 0.550796
81 4 0.299284 0.786639 0.569237
82 1 0.330974 0.772388 0.560996
83 3 0.336007 0.760534 0.547776
84 4 0.340568 0.774717 0.56785
85 1 0.327357 0.746283 0.557568
86 3 0.32374 0.740459 0.539943
87 4 0.324212 0.739363 0.566626
88 1 0.303609 0.748338 0.538311
89 3 0.305732 0.749914 0.519461
90 4 0.292365 0.75012 0.54288
91 1 0.315326 0.767181 0.519298
92 3 0.323819 0.762864 0.502407
93 4 0.318707 0.777321 0.521909
94 1 0.338523 0.751079 0.511791
95 3 0.327043 0.738335 0.505834
96 4 0.345994 0.747585 0.520522
97 1 0.335063 0.738198 0.48519
98 3 0.347566 0.72703 0.492615
99 4 0.339074 0.741624 0.474092
100 1 0.335378 0.711819 0.485843
101 3 0.33758 0.699075 0.473847
102 4 0.325627 0.706406 0.489514
103 1 0.347173 0.710928 0.456712
104 3 0.362821 0.706338 0.466014
105 4 0.349689 0.720041 0.449939
106 1 0.365967 0.691881 0.450265
107 3 0.379885 0.702227 0.446838
108 4 0.363293 0.68544 0.440963
109 1 0.394747 0.691196 0.458588
110 3 0.402139 0.702295 0.470991
111 4 0.401431 0.69517 0.449368
112 1 0.386333 0.698253 0.486985
113 3 0.397971 0.707297 0.498817
114 4 0.376425 0.694005 0.493105
115 1 0.411103 0.692497 0.50306
116 3 0.428875 0.696197 0.502081
117 4 0.413305 0.682151 0.505998
118 1 0.427302 0.706886 0.482823
119 3 0.430683 0.723398 0.47907
120 4 0.427931 0.704145 0.470502
121 1 0.412047 0.729428 0.488535
122 3 0.409609 0.729085 0.508201
123 4 0.400566 0.729702 0.484945
124 1 0.416293 0.746968 0.511383
125 3 0.405206 0.74642 0.526561
126 4 0.421955 0.755601 0.511546
127 1 0.387041 0.753888 0.515218
128 3 0.379335 0.746694 0.531293
129 4 0.379571 0.757862 0.506242
130 1 0.381379 0.72888 0.525255
131 3 0.380829 0.72655 0.544676
132 4 0.385232 0.721069 0.518319
133 1 0.40206 0.730661 0.548021
134 3 0.396399 0.736896 0.56581
135 4 0.414563 0.731209 0.54696
136 1 0.391366 0.753477 0.559037
137 3 0.378155 0.750462 0.572909
138 4 0.390973 0.763001 0.553815
139 1 0.364237 0.741007 0.559037
140 3 0.360148 0.73258 0.575357
141 4 0.358339 0.736896 0.548919
142 1 0.376976 0.722097 0.57601
143 3 0.376504 0.723261 0.59543
144 4 0.386176 0.715519 0.573643
145 1 0.387277 0.740048 0.594859
146 3 0.375718 0.745324 0.610282
147 4 0.394669 0.748407 0.590779
148 1 0.359126 0.749709 0.597878
149 3 0.348117 0.744296 0.612485
150 4 0.352756 0.752244 0.588086
151 1 0.349532 0.725111 0.606038
152 3 0.348746 0.725248 0.625459
153 4 0.351183 0.716067 0.600082
154 1 0.369977 0.725728 0.62856
155 3 0.365416 0.731483 0.64643
156 4 0.382637 0.725454 0.626765
157 1 0.361956 0.749914 0.639249
158 3 0.34851 0.748476 0.653937
159 4 0.361956 0.758342 0.631742
160 1 0.332783 0.741418 0.639168
161 3 0.325313 0.733881 0.654753
162 4 0.326492 0.73902 0.628805
163 1 0.339231 0.717849 0.650673
164 3 0.338051 0.716958 0.670502
165 4 0.34733 0.711888 0.644716
166 1 0.353936 0.730593 0.67295
167 3 0.344342 0.735115 0.689188
168 4 0.364001 0.735937 0.670583
169 1 0.331918 0.748407 0.678254
170 3 0.320988 0.74779 0.693758
171 5 0.340175 0.702552 0.634019
172 1 0.312023 0.729908 0.690167
173 3 0.312495 0.727578 0.709914
174 4 0.30935 0.720726 0.684047
175 1 0.333176 0.722987 0.71073
176 3 0.333491 0.731483 0.727295
177 4 0.344185 0.718945 0.708854
178 1 0.337422 0.747653 0.717503
179 3 0.3272 0.753135 0.732354
180 4 0.341275 0.755601 0.710404
181 1 0.308406 0.754299 0.719461
182 3 0.300307 0.760603 0.734639
183 4 0.300228 0.752792 0.710486
184 1 0.297712 0.744776 0.747124
185 3 0.301329 0.752449 0.763607
186 4 0.296611 0.734224 0.74998
187 1 0.323189 0.751901 0.760751
188 3 0.319808 0.76629 0.770624
189 4 0.334277 0.749572 0.756834
190 1 0.318471 0.777252 0.752101
191 3 0.308406 0.786502 0.764423
192 4 0.31855 0.781226 0.740514
193 1 0.290792 0.776773 0.763525
194 3 0.287175 0.778623 0.782701
195 4 0.281041 0.773279 0.757732
196 1 0.300149 0.763207 0.788495
197 3 0.302902 0.77136 0.804243
198 4 0.306519 0.754436 0.788576
199 1 0.321145 0.780952 0.796491
200 3 0.319965 0.79678 0.80204
201 4 0.331918 0.781226 0.790126
202 1 0.299914 0.799931 0.792574
203 3 0.289691 0.802809 0.808976
204 4 0.296218 0.802741 0.781232
205 1 0.2742 0.790134 0.805222
206 3 0.269718 0.787667 0.824317
207 4 0.267909 0.782665 0.799755
208 1 0.288276 0.778486 0.830192
209 3 0.306126 0.783693 0.82652
210 4 0.289141 0.76814 0.8306
211 1 0.311787 0.782597 0.84847
212 3 0.319729 0.768688 0.840881
213 5 0.301879 0.732232 0.799346
214 1 0.340017 0.77369 0.844145
215 3 0.338287 0.764166 0.860792
216 4 0.349453 0.779788 0.845696
217 1 0.342848 0.748133 0.850592
218 3 0.347959 0.732648 0.849041
219 4 0.331446 0.745324 0.850918
220 1 0.359833 0.734156 0.829539
221 3 0.350083 0.721891 0.822848
222 4 0.371235 0.737718 0.82603
223 1 0.347252 0.727235 0.801387
224 3 0.350083 0.711545 0.795349
225 4 0.344499 0.734293 0.792493
226 1 0.370056 0.715656 0.787352
227 3 0.385861 0.720178 0.798694
228 4 0.373673 0.719767 0.776418
229 1 0.393961 0.702706 0.799266
230 3 0.401746 0.709147 0.783191
231 4 0.393725 0.69236 0.797389
232 1 0.419832 0.714765 0.794125
233 3 0.426044 0.717643 0.77601
234 4 0.428246 0.71778 0.803019
235 1 0.430841 0.699966 0.771277
236 3 0.425808 0.70209 0.752591
237 4 0.434694 0.689962 0.773317
238 1 0.404341 0.700377 0.757242
239 3 0.402453 0.712984 0.744676
240 4 0.39341 0.697088 0.761812
241 1 0.401431 0.727167 0.760343
242 3 0.40725 0.736485 0.745818
243 4 0.400094 0.733333 0.770624
244 1 0.42856 0.731689 0.750551
245 3 0.430133 0.735868 0.732109
246 4 0.437446 0.726276 0.755528
247 1 0.423213 0.718123 0.724439
248 3 0.415114 0.72655 0.70967
249 4 0.421798 0.708051 0.723052
250 1 0.396241 0.729359 0.721746
251 3 0.39341 0.742309 0.710078
252 4 0.387277 0.728126 0.730477
253 1 0.407407 0.752861 0.719869
254 3 0.417315 0.759507 0.705998
255 4 0.408744 0.759575 0.729172
256 1 0.432177 0.745324 0.703876
257 3 0.430998 0.747379 0.684537
258 4 0.440198 0.737581 0.70763
259 1 0.411654 0.738404 0.681763
260 3 0.41126 0.748613 0.666422
261 4 0.403633 0.731415 0.682089
262 1 0.402768 0.762727 0.680783
263 3 0.411418 0.77088 0.666667
264 4 0.397028 0.767386 0.690657
265 1 0.430212 0.77184 0.679233
266 3 0.437525 0.773484 0.660955
267 4 0.437603 0.771223 0.688698
268 1 0.438861 0.754985 0.656793
269 3 0.437839 0.759781 0.638188
270 4 0.439333 0.744707 0.659323
271 1 0.415664 0.76026 0.63827
272 3 0.417709 0.773964 0.627336
273 4 0.403869 0.757862 0.640881
274 1 0.418416 0.785954 0.643574
275 3 0.430998 0.793285 0.631742
276 4 0.417394 0.790339 0.654672
277 1 0.447983 0.783967 0.63876
278 3 0.453409 0.78568 0.619829
279 4 0.456004 0.77739 0.643656
280 1 0.441456 0.770606 0.612158
281 3 0.440827 0.778554 0.594778
282 4 0.434694 0.761562 0.612077
283 1 0.424943 0.791298 0.603019
284 3 0.433514 0.803494 0.593146
285 4 0.415271 0.794998 0.609874
286 1 0.44759 0.808428 0.608568
287 3 0.461115 0.81062 0.594778
288 4 0.452151 0.810072 0.620726
289 1 0.464732 0.791847 0.592166
290 3 0.467091 0.794656 0.573154
291 4 0.468271 0.782871 0.597307
292 1 0.444366 0.791984 0.568176
293 3 0.445388 0.80418 0.555039
294 4 0.432806 0.787804 0.56785
295 1 0.443973 0.818568 0.570787
296 3 0.455847 0.827681 0.559935
297 4 0.441142 0.823227 0.58164
298 1 0.473382 0.817472 0.567279
299 3 0.477943 0.820281 0.549327
300 4 0.482504 0.812607 0.574133
301 1 0.471809 0.803426 0.541656
302 3 0.469608 0.812127 0.525092
303 4 0.466384 0.793696 0.541412
304 1 0.449556 0.81802 0.529253
305 3 0.454038 0.83234 0.521665
306 4 0.438075 0.817472 0.532273
307 1 0.464654 0.840082 0.537821
308 3 0.474562 0.846797 0.523868
309 4 0.469214 0.84296 0.548837
310 1 0.487379 0.831107 0.520277
311 3 0.48447 0.837067 0.501673
312 4 0.493906 0.822473 0.521501
313 1 0.466384 0.828434 0.497593
314 3 0.463238 0.841658 0.486006
315 4 0.457655 0.821377 0.496858
316 1 0.456004 0.852963 0.502652
317 3 0.464496 0.865433 0.494247
318 4 0.450342 0.855978 0.513668
319 1 0.484705 0.860911 0.500694
320 3 0.490053 0.865707 0.482415
321 4 0.494142 0.859541 0.508119
322 1 0.485649 0.848852 0.471889
323 3 0.480223 0.858102 0.456385
324 4 0.484076 0.838027 0.469931
325 1 0.460643 0.862556 0.466095
326 3 0.461508 0.877492 0.458262
327 4 0.450028 0.862898 0.471971
328 1 0.47637 0.883933 0.474255
329 3 0.4862 0.890305 0.459078
330 4 0.479594 0.886125 0.485924
331 1 0.501769 0.876465 0.458833
332 3 0.506016 0.861185 0.463158
333 4 0.511835 0.880713 0.465279
334 1 0.507116 0.855019 0.441942
335 3 0.524888 0.853786 0.445043
336 4 0.499096 0.850223 0.433701
337 1 0.515924 0.859198 0.417544
338 3 0.508296 0.872354 0.424561
339 4 0.524416 0.860295 0.409139
340 1 0.493277 0.874478 0.407426
341 3 0.482268 0.866667 0.420645
342 4 0.487851 0.873587 0.396654
343 1 0.473461 0.88222 0.429131
344 3 0.456318 0.876465 0.433864
345 4 0.473618 0.891607 0.434517
346 1 0.450893 0.873792 0.410445
347 3 0.458206 0.858239 0.414198
348 4 0.450814 0.874478 0.397878
349 1 0.439569 0.849195 0.41477
350 3 0.444051 0.842754 0.397878
351 4 0.427695 0.847071 0.415504
352 1 0.453016 0.826859 0.406773
353 3 0.450106 0.816787 0.422032
354 4 0.465204 0.828777 0.406936
355 1 0.452072 0.800754 0.409955
356 3 0.469922 0.800548 0.416075
357 4 0.452544 0.793559 0.400571
358 1 0.465361 0.791778 0.435414
359 3 0.455375 0.779445 0.442432
360 4 0.464654 0.797807 0.44594
361 1 0.471573 0.766221 0.439004
362 3 0.466934 0.766701 0.458425
363 4 0.482189 0.760946 0.438107
364 1 0.452229 0.753066 0.458017
365 3 0.455611 0.746009 0.4745
366 4 0.442085 0.749503 0.45304
367 1 0.471338 0.734498 0.465524
368 3 0.479123 0.735937 0.482334
369 4 0.478257 0.729565 0.456793
370 1 0.488716 0.753066 0.478091
371 3 0.483605 0.75519 0.497348
372 4 0.493827 0.761083 0.472379
373 1 0.463946 0.761768 0.493921
374 3 0.460879 0.754299 0.512607
375 4 0.453723 0.765879 0.489841
376 1 0.459306 0.736417 0.503305
377 3 0.467563 0.732374 0.519951
378 4 0.456869 0.728469 0.495145
379 1 0.487694 0.734841 0.512933
380 3 0.490918 0.741007 0.530477
381 4 0.497366 0.735183 0.505345
382 1 0.48274 0.757794 0.52754
383 3 0.478572 0.758273 0.546226
384 4 0.479909 0.767318 0.522644
385 1 0.458913 0.748064 0.542962
386 3 0.463395 0.740391 0.559772
387 4 0.447669 0.746283 0.538882
388 1 0.475112 0.726482 0.551204
389 3 0.483998 0.727989 0.568176
390 4 0.478336 0.718123 0.544594
391 1 0.497366 0.74272 0.560261
392 3 0.497444 0.74779 0.579192
393 4 0.503814 0.747927 0.552346
394 1 0.478887 0.758479 0.576663
395 3 0.475427 0.755122 0.595186
396 4 0.470473 0.763686 0.570216
397 1 0.465755 0.738129 0.591024
398 3 0.474483 0.732922 0.607997
399 4 0.459306 0.731689 0.58368
400 1 0.493984 0.728537 0.596736
401 3 0.502241 0.732922 0.613382
402 4 0.500904 0.724289 0.587271
403 1 0.5046 0.752107 0.607507
404 3 0.501848 0.755464 0.626765
405 4 0.506409 0.760946 0.600571
406 1 0.479909 0.754916 0.624969
407 3 0.480066 0.753066 0.644227
408 4 0.468507 0.754231 0.621216
409 1 0.484155 0.734567 0.643166
410 3 0.493355 0.736622 0.660547
411 4 0.485099 0.724563 0.638841
412 1 0.511363 0.743679 0.65002
413 3 0.514115 0.753614 0.664137
414 5 0.501455 0.686745 0.608898
415 1 0.503971 0.769305 0.654264
416 3 0.497444 0.773621 0.671971
417 4 0.500904 0.776088 0.645124
418 1 0.48101 0.761288 0.672787
419 3 0.481639 0.75841 0.69237
420 4 0.47063 0.756697 0.668951
421 1 0.498309 0.746009 0.69082
422 3 0.502477 0.74964 0.709506
423 4 0.505151 0.737992 0.688454
424 1 0.513171 0.765125 0.707466
425 3 0.504915 0.77273 0.722644
426 4 0.520799 0.772114 0.70257
427 1 0.4862 0.777595 0.712362
428 3 0.482582 0.779651 0.730559
429 4 0.477864 0.780678 0.703958
430 1 0.477156 0.762453 0.736271
431 3 0.483605 0.765399 0.754141
432 4 0.474247 0.752312 0.733986
433 1 0.505151 0.760055 0.748266
434 3 0.509004 0.77184 0.761322
435 4 0.514351 0.756355 0.741738
436 1 0.506409 0.786913 0.747858
437 3 0.501769 0.794793 0.764504
438 4 0.507116 0.793559 0.738311
439 1 0.481481 0.789448 0.764668
440 3 0.483683 0.789243 0.783762
441 5 0.488401 0.737565 0.717341
442 1 0.491704 0.771155 0.784414
443 3 0.505229 0.774649 0.799266
444 4 0.493591 0.760329 0.782211
445 1 0.516789 0.786023 0.787434
446 3 0.514036 0.795409 0.803427
447 4 0.523787 0.789311 0.777397
448 1 0.499253 0.806235 0.795838
449 3 0.4954 0.806646 0.814769
450 4 0.492333 0.81199 0.789147
451 1 0.480931 0.793628 0.815585
452 3 0.477078 0.779308 0.80612
453 4 0.470158 0.798424 0.81428
454 1 0.481324 0.768071 0.824153
455 3 0.468743 0.756355 0.824153
456 4 0.488952 0.764234 0.833293
457 1 0.452387 0.767592 0.830763
458 3 0.437131 0.762384 0.822521
459 4 0.44759 0.774101 0.839821
460 1 0.442557 0.771566 0.801142
461 3 0.425336 0.76629 0.798613
462 4 0.449162 0.773758 0.791024
463 1 0.431391 0.748201 0.795104
464 3 0.417551 0.739637 0.803182
465 4 0.438154 0.74135 0.788005
466 1 0.427145 0.738472 0.823664
467 3 0.417079 0.739911 0.840147
468 4 0.436424 0.734498 0.829784
469 1 0.407486 0.756629 0.832395
470 3 0.400881 0.760466 0.814361
471 4 0.412519 0.765331 0.838515
472 1 0.380278 0.764988 0.820563
473 3 0.380593 0.752655 0.807181
474 5 0.388614 0.716392 0.767749
475 1 0.372965 0.764714 0.790453
476 3 0.385704 0.776773 0.791432
477 4 0.364315 0.768208 0.783027
478 1 0.400566 0.76814 0.778866
479 3 0.393961 0.774306 0.761322
480 4 0.408666 0.760603 0.774704
481 1 0.403554 0.791641 0.764586
482 3 0.413069 0.796711 0.748103
483 4 0.401353 0.800274 0.771277
484 1 0.432099 0.790202 0.755284
485 3 0.439648 0.803357 0.746308
486 4 0.438861 0.782939 0.759935
487 1 0.44641 0.810894 0.766055
488 3 0.434694 0.820486 0.755936
489 4 0.457655 0.809935 0.761567
490 1 0.439097 0.836588 0.766136
491 3 0.455847 0.841932 0.762138
492 4 0.435008 0.841453 0.776826
493 1 0.447275 0.855498 0.74745
494 3 0.45679 0.864406 0.760669
495 4 0.440434 0.863446 0.742554
496 1 0.475898 0.863241 0.75153
497 3 0.489345 0.871531 0.743125
498 4 0.481167 0.856047 0.759445
499 1 0.487065 0.861459 0.722889
500 3 0.482976 0.862761 0.704121
501 4 0.492805 0.852758 0.719788
502 1 0.463238 0.870161 0.706161
503 3 0.468349 0.878246 0.690657
504 4 0.452072 0.872765 0.709343
505 1 0.474955 0.893936 0.701183
506 3 0.486042 0.896814 0.685435
507 4 0.475977 0.902158 0.709425
508 1 0.502949 0.886536 0.693105
509 3 0.508768 0.878657 0.677193
510 4 0.511048 0.885166 0.70257
511 1 0.493434 0.863652 0.679396
512 3 0.486042 0.867831 0.662097
513 5 0.495557 0.793253 0.634123
514 1 0.466541 0.862624 0.666911
515 3 0.462137 0.871326 0.650836
516 4 0.456318 0.860226 0.67295
517 1 0.465519 0.888661 0.661689
518 3 0.47464 0.890716 0.644635
519 4 0.461587 0.895033 0.671399
520 1 0.490918 0.899692 0.652224
521 3 0.503971 0.897431 0.638188
522 4 0.497051 0.906338 0.659568
523 1 0.505858 0.877355 0.642513
524 3 0.503578 0.863583 0.633048
525 4 0.512542 0.872285 0.651326
526 1 0.483369 0.866393 0.626846
527 3 0.474719 0.873998 0.611669
528 4 0.478415 0.85776 0.632313
529 1 0.457576 0.880507 0.623827
530 3 0.456318 0.892497 0.610037
531 4 0.449556 0.882288 0.633048
532 1 0.472596 0.902706 0.616565
533 3 0.475269 0.906338 0.598042
534 4 0.479358 0.908873 0.624561
535 1 0.487694 0.891675 0.592248
536 3 0.478336 0.889277 0.575112
537 4 0.496422 0.885166 0.594614
538 1 0.462688 0.879 0.58417
539 3 0.453409 0.88777 0.570053
540 4 0.457105 0.872765 0.592003
541 1 0.448376 0.902432 0.584741
542 3 0.447118 0.909353 0.568013
543 4 0.447039 0.908256 0.594941
544 1 0.467642 0.914491 0.566381
545 3 0.465676 0.913189 0.546879
546 4 0.479358 0.915588 0.570135
547 1 0.468349 0.893594 0.547205
548 3 0.455925 0.894416 0.533007
549 4 0.472124 0.883727 0.550143
550 1 0.438154 0.892086 0.547205
551 3 0.428639 0.899623 0.533333
552 4 0.431312 0.889962 0.556834
553 1 0.436895 0.918054 0.540596
554 3 0.438783 0.922576 0.52093
555 4 0.43894 0.926413 0.548429
556 1 0.458127 0.915519 0.518401
557 3 0.452072 0.912162 0.500449
558 4 0.469293 0.911751 0.519298
559 1 0.442007 0.895855 0.505508
560 3 0.430054 0.900103 0.491065
561 4 0.439884 0.886948 0.511791
562 1 0.416686 0.909353 0.505671
563 3 0.413934 0.917712 0.489188
564 4 0.411339 0.913464 0.516034
565 1 0.431941 0.929633 0.492697
566 3 0.432177 0.93073 0.473358
567 4 0.441456 0.934567 0.498409
568 1 0.444602 0.914628 0.470502
569 3 0.435716 0.913806 0.453611
570 4 0.452465 0.906954 0.472868
571 1 0.418809 0.903871 0.462831
572 3 0.406071 0.910723 0.451244
573 4 0.412597 0.897431 0.470175
574 1 0.405913 0.927304 0.463076
575 3 0.405206 0.936417 0.445777
576 4 0.404026 0.93347 0.473276
577 1 0.427931 0.937033 0.444553
578 3 0.426909 0.933744 0.424725
579 4 0.439176 0.939363 0.44847
580 1 0.424943 0.914697 0.427254
581 3 0.41126 0.910723 0.413464
582 4 0.428717 0.90531 0.4306
583 1 0.394511 0.918534 0.424725
584 3 0.386727 0.922782 0.407344
585 4 0.387827 0.922919 0.434517
586 1 0.398836 0.938609 0.405222
587 3 0.400094 0.936005 0.386128
588 4 0.404105 0.947927 0.408731
589 1 0.417709 0.923398 0.387515
590 3 0.40552 0.911134 0.386699
591 4 0.427695 0.918876 0.392166
592 1 0.409295 0.907777 0.364586
593 3 0.421798 0.896677 0.369237
594 4 0.407722 0.910449 0.352428
595 1 0.40552 0.881877 0.367116
596 3 0.412912 0.869339 0.3561
597 4 0.395062 0.877903 0.370135
598 1 0.416215 0.879685 0.33774
599 3 0.418574 0.893799 0.329743
600 4 0.409609 0.876396 0.327866
601 1 0.439333 0.895855 0.33366
602 3 0.454038 0.886605 0.335945
603 4 0.43894 0.904488 0.341167
604 1 0.468192 0.897362 0.324031
605 3 0.470394 0.901336 0.342962
606 4 0.473225 0.904419 0.316279
607 1 0.489424 0.890579 0.34492
608 3 0.502556 0.902021 0.342636
609 4 0.496973 0.88222 0.343207
610 1 0.498624 0.909969 0.363443
611 3 0.515137 0.912778 0.372909
612 4 0.491389 0.914628 0.372093
613 1 0.523079 0.895375 0.368747
614 3 0.527483 0.89976 0.351938
615 4 0.524967 0.885098 0.369563
616 1 0.546827 0.907845 0.35716
617 3 0.534953 0.921069 0.358874
618 5 0.540143 0.843064 0.328816
619 1 0.546198 0.930661 0.343533
620 3 0.532909 0.926824 0.330314
621 4 0.555949 0.93532 0.337332
622 1 0.519934 0.941007 0.336189
623 3 0.510734 0.948338 0.321501
624 4 0.512385 0.943542 0.346063
625 1 0.52882 0.956012 0.312852
626 3 0.533852 0.954985 0.293839
627 4 0.537863 0.963138 0.31481
628 1 0.53401 0.936074 0.293268
629 3 0.523551 0.924358 0.301918
630 4 0.544704 0.930798 0.294002
631 1 0.51152 0.921411 0.284129
632 3 0.518754 0.915725 0.267401
633 4 0.500904 0.926276 0.280539
634 1 0.517811 0.896745 0.274011
635 3 0.521114 0.892155 0.255569
636 4 0.516238 0.888661 0.281844
637 1 0.499803 0.89421 0.248796
638 3 0.502634 0.910312 0.2439
639 4 0.487379 0.892018 0.248307
640 1 0.50405 0.906954 0.22195
641 3 0.494299 0.912093 0.206365
642 4 0.514351 0.904762 0.215667
643 1 0.477235 0.900993 0.209792
644 3 0.468743 0.89469 0.225704
645 4 0.47928 0.892429 0.201714
646 1 0.448769 0.903597 0.219094
647 3 0.444051 0.913258 0.234598
648 4 0.444209 0.894347 0.223909
649 1 0.456161 0.92703 0.229294
650 3 0.445388 0.937718 0.238107
651 4 0.465047 0.933059 0.224561
652 1 0.441692 0.932511 0.209302
653 3 0.428639 0.921411 0.214443
654 4 0.43776 0.940528 0.202448
655 1 0.43029 0.913121 0.192411
656 3 0.446332 0.905104 0.188331
657 4 0.42683 0.916341 0.180987
658 1 0.436817 0.887838 0.193798
659 3 0.436188 0.887427 0.174133
660 4 0.430526 0.879753 0.19845
661 1 0.454352 0.877355 0.172338
662 3 0.440906 0.865844 0.170543
663 4 0.465047 0.872902 0.174133
664 1 0.440198 0.866256 0.148592
665 3 0.453409 0.854471 0.149898
666 4 0.437446 0.870983 0.13725
667 1 0.441928 0.842686 0.136516
668 3 0.435165 0.848715 0.120359
669 4 0.433907 0.834806 0.137903
670 1 0.453959 0.844262 0.107956
671 3 0.457341 0.860637 0.110078
672 4 0.445703 0.840425 0.0992248
673 1 0.470787 0.861459 0.0917993
674 3 0.455375 0.867831 0.0829865
675 4 0.477628 0.858308 0.0824969
676 1 0.459385 0.886057 0.0869849
677 3 0.469529 0.887085 0.0711546
678 4 0.460722 0.89421 0.0946552
679 1 0.453173 0.896745 0.0586699
680 3 0.463474 0.910038 0.0627499
681 4 0.44295 0.900719 0.0534476
682 1 0.472753 0.910654 0.0434925
683 3 0.457812 0.917986 0.0333741
684 4 0.479752 0.906612 0.0341085
685 1 0.463946 0.935731 0.0394125
686 3 0.482032 0.941007 0.0368829
687 4 0.459071 0.940665 0.0496124
688 1 0.476763 0.953888 0.0221134
689 3 0.472674 0.964303 0.0368829
690 4 0.472203 0.958273 0.0110975
691 1 0.492412 0.973895 0.0345165
692 3 0.480774 0.982871 0.0241534
693 4 0.504522 0.976773 0.0335373
694 1 0.489109 0.989928 0.050102
695 3 0.472517 0.987393 0.0591595
696 4 0.491704 0.999726 0.0539372
697 1 0.482189 0.975814 0.0744186
698 3 0.4862 0.989037 0.0846185
699 4 0.48966 0.968071 0.0784986
700 1 0.47118 0.984995 0.100367
701 3 0.480538 0.974032 0.110812
702 4 0.460014 0.985543 0.105018
703 1 0.49312 0.985886 0.122073
704 3 0.482111 0.987804 0.138066
705 4 0.501612 0.992943 0.124439
706 1 0.483605 0.970538 0.146389
707 3 0.490996 0.980267 0.160016
708 4 0.488559 0.960946 0.147776
709 1 0.471573 0.981432 0.172011
710 3 0.481245 0.970469 0.183435
711 5 0.473618 0.91761 0.163697
712 1 0.486593 0.981843 0.200082
713 3 0.478022 0.984721 0.216483
714 4 0.493984 0.989997 0.202693
715 1 0.470394 0.967044 0.219829
716 3 0.48557 0.960877 0.228723
717 4 0.463317 0.958547 0.217217
718 1 0.47928 0.964508 0.249939
719 3 0.486435 0.950188 0.254916
720 4 0.474798 0.969921 0.259812
721 1 0.466069 0.941487 0.254916
722 3 0.454195 0.94964 0.267319
723 5 0.468979 0.865892 0.235297
724 1 0.449084 0.93532 0.280539
725 3 0.459857 0.923878 0.288698
726 4 0.437996 0.931415 0.278335
727 1 0.454982 0.928811 0.309262
728 3 0.445545 0.916341 0.317829
729 4 0.457734 0.934909 0.31938
730 1 0.426516 0.921617 0.312444
731 3 0.418809 0.932374 0.299551
732 4 0.422663 0.923261 0.324521
733 1 0.400173 0.923124 0.297674
734 3 0.390973 0.929496 0.312852
735 4 0.394039 0.914628 0.292615
736 1 0.379492 0.941555 0.300122
737 3 0.365102 0.930593 0.299878
738 4 0.378077 0.950051 0.291799
739 1 0.356767 0.935731 0.319706
740 3 0.356137 0.94827 0.332191
741 4 0.359676 0.926687 0.325092
742 1 0.334356 0.950325 0.331783
743 3 0.324526 0.937239 0.338229
744 4 0.326649 0.955464 0.324194
745 1 0.321145 0.942926 0.36018
746 3 0.3191 0.956903 0.368992
747 4 0.327986 0.936691 0.367768
748 1 0.299442 0.952587 0.377315
749 3 0.293387 0.951901 0.395838
750 4 0.288747 0.955327 0.372338
751 1 0.301565 0.934018 0.399755
752 3 0.31682 0.942172 0.40767
753 4 0.305339 0.92381 0.397552
754 1 0.310136 0.940802 0.428478
755 3 0.318707 0.932785 0.443248
756 4 0.304238 0.948681 0.434598
757 1 0.307462 0.916204 0.43982
758 3 0.317056 0.910038 0.454753
759 4 0.30125 0.908325 0.433701
760 1 0.335378 0.906201 0.4439
761 3 0.346151 0.910038 0.459812
762 4 0.341197 0.902021 0.433537
763 1 0.348667 0.928126 0.45304
764 3 0.347488 0.930867 0.472215
765 4 0.348746 0.936759 0.445614
766 1 0.325077 0.930456 0.473603
767 3 0.325155 0.922508 0.49082
768 4 0.313046 0.932785 0.468951
769 1 0.326807 0.905721 0.482334
770 3 0.337108 0.901405 0.498082
771 4 0.323268 0.89654 0.477111
772 1 0.355272 0.909147 0.490004
773 3 0.358418 0.916341 0.507874
774 4 0.362664 0.912025 0.480865
775 1 0.345286 0.931483 0.504774
776 3 0.343163 0.928811 0.523052
777 5 0.348117 0.87464 0.473684
778 1 0.324841 0.918945 0.521175
779 3 0.330109 0.911614 0.538311
780 4 0.313832 0.916273 0.516932
781 1 0.343556 0.899555 0.530396
782 3 0.353936 0.902912 0.545492
783 4 0.348117 0.890922 0.524357
784 1 0.363057 0.918534 0.537087
785 3 0.3629 0.923261 0.555365
786 4 0.368562 0.924837 0.528764
787 1 0.34332 0.932922 0.552999
788 3 0.338523 0.928811 0.57193
789 4 0.333412 0.938198 0.548837
790 1 0.333097 0.910723 0.566381
791 3 0.341669 0.907777 0.583354
792 4 0.329637 0.901953 0.560016
793 1 0.361799 0.904145 0.573072
794 3 0.367933 0.907503 0.591432
795 4 0.370921 0.902638 0.564423
796 1 0.368876 0.926687 0.587678
797 3 0.365967 0.929428 0.605875
798 4 0.372258 0.936211 0.582048
799 1 0.344735 0.925385 0.605386
800 3 0.348667 0.917712 0.622195
801 4 0.333176 0.925385 0.600816
802 1 0.352678 0.900925 0.614035
803 3 0.365495 0.899349 0.628478
804 4 0.351813 0.892223 0.606854
805 1 0.382637 0.906406 0.615177
806 3 0.39113 0.910928 0.632395
807 4 0.388614 0.908941 0.604814
808 1 0.380357 0.928332 0.632232
809 3 0.386019 0.930593 0.65051
810 4 0.372887 0.936417 0.629131
811 1 0.373909 0.918945 0.66275
812 3 0.388692 0.917917 0.674582
813 4 0.363529 0.914217 0.665932
814 1 0.398207 0.902912 0.662913
815 3 0.41362 0.910106 0.67091
816 4 0.400488 0.894484 0.65614
817 1 0.413777 0.923947 0.654508
818 3 0.420854 0.932169 0.670175
819 4 0.414878 0.928126 0.64284
820 1 0.402453 0.941624 0.674827
821 3 0.410474 0.94272 0.692534
822 4 0.391445 0.945735 0.6745
823 1 0.404734 0.925111 0.698409
824 3 0.420146 0.925797 0.710078
825 4 0.397971 0.91641 0.700041
826 1 0.433514 0.920247 0.693676
827 3 0.44641 0.931072 0.70053
828 4 0.437996 0.914286 0.684782
829 1 0.439019 0.946694 0.688617
830 3 0.445152 0.954094 0.704855
831 4 0.433829 0.952861 0.680212
832 1 0.424393 0.951353 0.715381
833 3 0.431627 0.951216 0.733089
834 4 0.412519 0.95012 0.717258
835 1 0.439254 0.933333 0.732681
836 3 0.453959 0.937581 0.744104
837 4 0.439648 0.922987 0.729743
838 1 0.466305 0.941761 0.7255
839 3 0.47637 0.954916 0.728111
840 4 0.471573 0.937581 0.714892
841 1 0.462609 0.968071 0.721338
842 3 0.473068 0.977115 0.733578
843 4 0.454352 0.973964 0.714647
844 1 0.459306 0.974306 0.752183
845 3 0.463867 0.960534 0.76124
846 4 0.44814 0.974786 0.756752
847 1 0.480223 0.967592 0.773072
848 3 0.476842 0.957314 0.787923
849 4 0.489266 0.974512 0.776907
850 1 0.46198 0.968414 0.797389
851 3 0.446489 0.960603 0.80408
852 4 0.459149 0.977527 0.803346
853 1 0.439805 0.956149 0.78213
854 3 0.428403 0.966906 0.790126
855 4 0.437682 0.946694 0.788005
856 1 0.415271 0.968003 0.770869
857 3 0.405992 0.957588 0.781967
858 4 0.411496 0.966701 0.758874
859 1 0.389636 0.96951 0.786699
860 3 0.381065 0.959027 0.774133
861 4 0.381301 0.977321 0.786128
862 1 0.376111 0.946351 0.789474
863 3 0.363293 0.940939 0.777071
864 4 0.374931 0.940596 0.8
865 1 0.348117 0.954848 0.780906
866 3 0.34387 0.949709 0.762872
867 4 0.341669 0.963481 0.784251
868 1 0.359912 0.961562 0.751856
869 3 0.361878 0.949709 0.739372
870 4 0.36691 0.969647 0.750061
871 1 0.376032 0.939705 0.750632
872 3 0.36636 0.927783 0.741983
873 4 0.384918 0.935252 0.758303
874 1 0.350948 0.926345 0.757813
875 3 0.338759 0.920589 0.744839
876 5 0.359204 0.854223 0.714449
877 1 0.333727 0.937239 0.736434
878 3 0.332783 0.929291 0.719298
879 4 0.332626 0.947379 0.734965
880 1 0.354486 0.931141 0.715137
881 3 0.353857 0.915862 0.707303
882 4 0.363844 0.937718 0.713749
883 1 0.359047 0.90668 0.725908
884 3 0.346623 0.896471 0.718972
885 4 0.362664 0.904899 0.738066
886 1 0.328851 0.903734 0.726479
887 3 0.320594 0.897773 0.710486
888 4 0.319887 0.908119 0.734313
889 1 0.327043 0.912847 0.696532
890 3 0.328458 0.899829 0.683721
891 4 0.330031 0.922508 0.692942
892 1 0.349296 0.896882 0.688535
893 3 0.344971 0.881809 0.681599
894 4 0.360856 0.898253 0.692452
895 1 0.335692 0.875437 0.699796
896 3 0.322954 0.868448 0.686985
897 4 0.334277 0.871531 0.711383
898 1 0.309507 0.881946 0.686903
899 3 0.305654 0.876739 0.668625
900 4 0.302508 0.889825 0.690983
901 1 0.320516 0.888661 0.658996
902 3 0.326413 0.877561 0.645614
903 4 0.327672 0.897088 0.656059
904 1 0.336557 0.866735 0.660057
905 3 0.330974 0.853237 0.652958
906 5 0.332075 0.801299 0.614788
907 1 0.311945 0.852963 0.665524
908 3 0.30416 0.847208 0.648796
909 4 0.305261 0.852484 0.675969
910 1 0.303059 0.864132 0.639004
911 3 0.308406 0.857828 0.622358
912 4 0.300778 0.874615 0.637536
913 1 0.329795 0.859609 0.625541
914 3 0.329873 0.846523 0.615014
915 4 0.341905 0.862076 0.628641