ITEM: TIMESTEP
0
ITEM: NUMBER OF ATOMS
8634
ITEM: BOX BOUNDS ss ss ss
14.76 171.79
22.94 171.36
-6.89 120.36
ITEM: ATOMS id type xs ys zs
1 1 0.446157 0.885662 0.86664
2 3 0.434567 0.895634 0.864519
3 4 0.44622 0.885595 0.878978
4 1 0.424186 0.882428 0.854774
5 3 0.41992 0.871783 0.867741
6 4 0.423741 0.877308 0.844244
7 1 0.402471 0.877981 0.868527
8 3 0.39986 0.866595 0.855403
9 4 0.395275 0.884989 0.867505
10 1 0.39381 0.853928 0.869548
11 3 0.386805 0.847595 0.853438
12 4 0.391008 0.849279 0.879686
13 1 0.372731 0.859183 0.855796
14 3 0.372922 0.860531 0.835992
15 4 0.365089 0.864574 0.860039
16 1 0.384449 0.873939 0.835521
17 3 0.391454 0.866662 0.820668
18 4 0.388206 0.883641 0.837328
19 1 0.400815 0.855141 0.830648
20 3 0.397504 0.843822 0.818468
21 4 0.407502 0.851705 0.838585
22 1 0.38343 0.836478 0.828919
23 3 0.377699 0.833648 0.811316
24 4 0.376616 0.834119 0.837485
25 1 0.373559 0.852176 0.807387
26 3 0.378272 0.8513 0.789548
27 4 0.370821 0.861542 0.811159
28 1 0.394129 0.856488 0.79387
29 3 0.396994 0.846517 0.779882
30 4 0.402216 0.861339 0.797878
31 1 0.396739 0.830279 0.791591
32 3 0.39018 0.823407 0.776424
33 4 0.397822 0.823743 0.801179
34 1 0.373559 0.828662 0.781218
35 3 0.371521 0.829403 0.762672
36 4 0.366045 0.831357 0.788291
37 1 0.377762 0.847662 0.761965
38 3 0.384321 0.844563 0.744833
39 4 0.378908 0.857768 0.765501
40 1 0.39865 0.837421 0.753163
41 3 0.398204 0.828662 0.738232
42 4 0.405528 0.834995 0.760943
43 1 0.387697 0.815389 0.748291
44 3 0.382029 0.80919 0.732495
45 4 0.38413 0.808719 0.756857
46 1 0.372859 0.825226 0.727623
47 3 0.377699 0.824417 0.709155
48 4 0.366745 0.834187 0.728723
49 1 0.392982 0.834389 0.71332
50 3 0.398841 0.824417 0.700511
51 4 0.398968 0.841666 0.718114
52 1 0.403044 0.810875 0.714656
53 3 0.398968 0.802789 0.699961
54 4 0.406037 0.80535 0.724165
55 1 0.381965 0.79969 0.705226
56 3 0.380182 0.79841 0.685894
57 4 0.374196 0.796052 0.711434
58 1 0.379545 0.816736 0.681572
59 3 0.386932 0.813772 0.666012
60 4 0.379036 0.827112 0.683379
61 1 0.402789 0.813031 0.675128
62 3 0.405337 0.801374 0.662475
63 4 0.41024 0.815928 0.681257
64 1 0.398905 0.787023 0.675521
65 3 0.393683 0.780623 0.658703
66 4 0.396294 0.781431 0.685501
67 1 0.377635 0.789988 0.659882
68 3 0.377953 0.791133 0.641336
69 4 0.369611 0.794098 0.665305
70 1 0.389416 0.805687 0.641415
71 3 0.394001 0.797399 0.626012
72 5 0.385786 0.752465 0.599156
73 1 0.407438 0.788573 0.635756
74 3 0.404954 0.778399 0.621847
75 4 0.413934 0.785474 0.643379
76 1 0.391008 0.769505 0.631434
77 3 0.384576 0.768091 0.61501
78 4 0.385595 0.765732 0.640236
79 1 0.379227 0.785204 0.614224
80 3 0.383175 0.785811 0.595756
81 4 0.374769 0.794098 0.616896
82 1 0.399414 0.790796 0.598585
83 3 0.400751 0.781835 0.582947
84 4 0.40782 0.794502 0.603929
85 1 0.403745 0.765598 0.594735
86 3 0.398332 0.757647 0.579725
87 4 0.406547 0.759601 0.603772
88 1 0.381711 0.758254 0.586719
89 3 0.374451 0.759938 0.570059
90 4 0.374642 0.756906 0.594813
91 1 0.377316 0.778938 0.569902
92 3 0.386741 0.772874 0.555914
93 4 0.380182 0.78891 0.572024
94 1 0.374387 0.773009 0.539646
95 3 0.377444 0.787764 0.533124
96 4 0.366045 0.770853 0.534617
97 1 0.393746 0.783789 0.525108
98 3 0.397249 0.770314 0.516306
99 4 0.401134 0.786686 0.532417
100 1 0.400178 0.779679 0.497053
101 3 0.412023 0.778938 0.486365
102 4 0.394192 0.783452 0.48833
103 1 0.423486 0.787091 0.501061
104 3 0.431574 0.773009 0.503026
105 4 0.426861 0.790662 0.511434
106 1 0.440425 0.776041 0.483772
107 3 0.452016 0.767619 0.489823
108 4 0.443482 0.779881 0.473242
109 1 0.460103 0.781701 0.499961
110 3 0.46558 0.775232 0.515678
111 4 0.464752 0.791133 0.499882
112 1 0.449341 0.772537 0.525422
113 3 0.449596 0.756973 0.529823
114 4 0.441062 0.777254 0.529037
115 1 0.442973 0.750438 0.510648
116 3 0.453289 0.738445 0.513792
117 4 0.438197 0.750168 0.500196
118 1 0.466662 0.748012 0.504361
119 3 0.478444 0.744307 0.515914
120 4 0.470802 0.752931 0.494695
121 1 0.474177 0.757378 0.531631
122 3 0.48755 0.765126 0.53611
123 4 0.476024 0.750371 0.539725
124 1 0.489524 0.773615 0.517092
125 3 0.495447 0.786417 0.526208
126 4 0.489397 0.77658 0.505383
127 1 0.47908 0.791942 0.53446
128 3 0.467681 0.783654 0.538625
129 4 0.47475 0.800903 0.530688
130 1 0.471184 0.780892 0.559686
131 3 0.469019 0.779747 0.577446
132 4 0.473922 0.771122 0.556464
133 1 0.480736 0.792077 0.584047
134 3 0.472776 0.79019 0.599921
135 4 0.488251 0.798679 0.584283
136 1 0.459912 0.80225 0.594342
137 3 0.450551 0.793424 0.604401
138 4 0.4552 0.809729 0.588841
139 1 0.447303 0.780286 0.589077
140 3 0.44673 0.769573 0.603851
141 4 0.44552 0.776513 0.577682
142 1 0.464243 0.766002 0.603772
143 3 0.463096 0.764587 0.622475
144 4 0.473285 0.765328 0.59945
145 1 0.465134 0.78325 0.625933
146 3 0.45469 0.780892 0.640157
147 4 0.468637 0.792952 0.625147
148 1 0.440744 0.781835 0.627741
149 3 0.434503 0.771796 0.639764
150 4 0.434885 0.784059 0.618232
151 1 0.442782 0.756434 0.631984
152 3 0.443291 0.753807 0.651238
153 4 0.445584 0.749225 0.624126
154 1 0.459594 0.761622 0.653124
155 3 0.454563 0.763576 0.67112
156 4 0.468318 0.765665 0.651081
157 1 0.44622 0.780623 0.666483
158 3 0.436413 0.775569 0.680943
159 4 0.443546 0.788842 0.659332
160 1 0.425842 0.765395 0.666719
161 3 0.423677 0.755626 0.681886
162 4 0.422021 0.761488 0.65666
163 1 0.438897 0.746058 0.679057
164 3 0.441763 0.743027 0.697289
165 4 0.445138 0.740129 0.673006
166 1 0.450423 0.76041 0.699489
167 3 0.442591 0.763172 0.715049
168 4 0.456983 0.768091 0.696582
169 1 0.427498 0.768562 0.703654
170 3 0.419156 0.763172 0.718664
171 5 0.435649 0.716479 0.661694
172 1 0.422212 0.745587 0.714342
173 3 0.421894 0.742016 0.732652
174 4 0.421703 0.737232 0.706955
175 1 0.43947 0.745519 0.736503
176 3 0.438133 0.753537 0.752849
177 4 0.449341 0.744846 0.734381
178 1 0.431892 0.76863 0.744362
179 3 0.421448 0.769842 0.758035
180 4 0.431574 0.777658 0.737839
181 1 0.409094 0.76041 0.747269
182 3 0.40228 0.760005 0.764086
183 4 0.403999 0.754683 0.738939
184 1 0.41145 0.745924 0.773045
185 3 0.411832 0.753403 0.788919
186 4 0.415908 0.736761 0.772416
187 1 0.427434 0.763374 0.784597
188 3 0.420429 0.774626 0.795521
189 4 0.43514 0.766339 0.779096
190 1 0.411323 0.781903 0.780118
191 3 0.403362 0.784598 0.795835
192 4 0.407948 0.784598 0.769666
193 1 0.391645 0.770112 0.792299
194 3 0.389734 0.770179 0.811473
195 4 0.386805 0.762431 0.786719
196 1 0.405337 0.760747 0.815717
197 3 0.406801 0.769303 0.831513
198 4 0.413488 0.754952 0.814931
199 1 0.415207 0.783183 0.821847
200 3 0.41024 0.795243 0.833084
201 4 0.422913 0.787832 0.816267
202 1 0.393237 0.79302 0.827583
203 3 0.384576 0.789314 0.842908
204 4 0.386678 0.797601 0.820668
205 1 0.383812 0.770651 0.83945
206 3 0.381074 0.768562 0.857525
207 4 0.384767 0.76142 0.833792
208 1 0.398841 0.770651 0.862947
209 3 0.407884 0.782442 0.857053
210 4 0.405528 0.762768 0.86389
211 1 0.408011 0.791807 0.876149
212 3 0.42234 0.798343 0.878192
213 5 0.404636 0.740299 0.824255
214 1 0.429663 0.782307 0.884008
215 3 0.432592 0.776782 0.86664
216 4 0.429982 0.773952 0.891631
217 1 0.449723 0.779949 0.867662
218 3 0.452079 0.765193 0.875599
219 4 0.458002 0.785406 0.868527
220 1 0.455582 0.756839 0.856896
221 3 0.449723 0.741814 0.856582
222 4 0.462778 0.75603 0.848644
223 1 0.434885 0.744105 0.846994
224 3 0.434057 0.730831 0.835835
225 4 0.426479 0.749293 0.844951
226 1 0.447176 0.73703 0.823261
227 3 0.458002 0.732785 0.835363
228 4 0.452016 0.743229 0.816267
229 1 0.463669 0.718434 0.825462
230 3 0.471248 0.726587 0.813045
231 4 0.462523 0.70954 0.820039
232 1 0.48513 0.729619 0.826955
233 3 0.493154 0.731573 0.810373
234 4 0.490734 0.728945 0.836935
235 1 0.495829 0.713516 0.807701
236 3 0.495701 0.717356 0.789705
237 4 0.49672 0.703342 0.809745
238 1 0.477425 0.716346 0.788448
239 3 0.477297 0.729214 0.776739
240 4 0.468382 0.711697 0.789862
241 1 0.478635 0.742285 0.792063
242 3 0.486468 0.749966 0.779175
243 4 0.476215 0.748484 0.801808
244 1 0.501624 0.740466 0.783811
245 3 0.504935 0.74141 0.76613
246 4 0.508756 0.735952 0.790727
247 1 0.495319 0.727058 0.759214
248 3 0.490671 0.736222 0.744283
249 4 0.491498 0.717356 0.758428
250 1 0.478826 0.746261 0.753399
251 3 0.484812 0.758793 0.743419
252 4 0.470483 0.749899 0.758743
253 1 0.497294 0.763442 0.75725
254 3 0.504872 0.767754 0.740589
255 4 0.502579 0.764587 0.767073
256 1 0.511176 0.75091 0.736739
257 3 0.509712 0.753537 0.717721
258 4 0.51557 0.741342 0.739175
259 1 0.492963 0.750371 0.715128
260 3 0.491881 0.763172 0.703183
261 4 0.485576 0.743296 0.715756
262 1 0.48876 0.77503 0.72055
263 3 0.497421 0.785474 0.709941
264 4 0.484621 0.778399 0.731081
265 1 0.512832 0.779342 0.718507
266 3 0.5185 0.782374 0.701454
267 4 0.519901 0.775502 0.725972
268 1 0.513214 0.766069 0.692259
269 3 0.510412 0.775098 0.676857
270 4 0.511113 0.756367 0.690609
271 1 0.494491 0.781768 0.6822
272 3 0.499077 0.795782 0.674813
273 4 0.485194 0.781296 0.686837
274 1 0.506973 0.802183 0.691473
275 3 0.516143 0.807304 0.678507
276 4 0.509712 0.805148 0.702711
277 1 0.528179 0.793357 0.679371
278 3 0.529389 0.797601 0.661297
279 4 0.533338 0.785137 0.682122
280 1 0.516908 0.78608 0.653517
281 3 0.515761 0.79686 0.639764
282 4 0.510667 0.778264 0.651238
283 1 0.505509 0.808516 0.651709
284 3 0.512959 0.819701 0.641965
285 4 0.49793 0.812357 0.658546
286 1 0.526524 0.820711 0.655796
287 3 0.534675 0.824485 0.64
288 4 0.5313 0.821385 0.667033
289 1 0.540152 0.806562 0.636857
290 3 0.541362 0.810605 0.618468
291 4 0.543718 0.796793 0.639528
292 1 0.524549 0.805552 0.614774
293 3 0.528689 0.81741 0.602436
294 4 0.515761 0.801172 0.614067
295 1 0.522957 0.831087 0.616267
296 3 0.532128 0.839981 0.605972
297 4 0.520219 0.835736 0.626955
298 1 0.546647 0.834119 0.61666
299 3 0.553716 0.836208 0.599764
300 4 0.552888 0.830212 0.624833
301 1 0.549576 0.818219 0.593949
302 3 0.549895 0.824485 0.57611
303 4 0.548048 0.807775 0.594263
304 1 0.532382 0.827247 0.574695
305 3 0.537604 0.839577 0.564165
306 4 0.522766 0.826236 0.574538
307 1 0.540534 0.851435 0.581297
308 3 0.552251 0.857162 0.570766
309 4 0.540534 0.855882 0.59222
310 1 0.563459 0.844697 0.576582
311 3 0.567726 0.846449 0.5589
312 4 0.568936 0.838297 0.583497
313 1 0.556582 0.832368 0.550884
314 3 0.557218 0.84079 0.534774
315 4 0.551041 0.823743 0.551906
316 1 0.544546 0.853052 0.539804
317 3 0.552633 0.8639 0.530373
318 4 0.535439 0.855747 0.544519
319 1 0.562822 0.868886 0.547426
320 3 0.573457 0.871379 0.533831
321 4 0.565306 0.870368 0.559214
322 1 0.581863 0.854534 0.535874
323 3 0.587658 0.854198 0.518664
324 4 0.585175 0.845439 0.540432
325 1 0.571228 0.85312 0.508448
326 3 0.578042 0.859588 0.493124
327 4 0.561676 0.851907 0.506562
328 1 0.573203 0.877375 0.499489
329 3 0.583519 0.889166 0.500904
330 4 0.564287 0.88162 0.495953
331 1 0.578616 0.892804 0.521807
332 3 0.588677 0.897655 0.534224
333 4 0.570464 0.894825 0.528487
334 1 0.597848 0.882361 0.535874
335 3 0.60861 0.893343 0.535796
336 4 0.598739 0.872254 0.539411
337 1 0.612685 0.875354 0.519136
338 3 0.599121 0.876701 0.51112
339 4 0.621474 0.876567 0.513084
340 1 0.600013 0.860598 0.499489
341 3 0.607655 0.84618 0.500275
342 4 0.600395 0.864708 0.488566
343 1 0.592944 0.836006 0.495639
344 3 0.578743 0.834861 0.490373
345 4 0.591734 0.832098 0.506719
346 1 0.58371 0.824754 0.472063
347 3 0.585939 0.808651 0.470884
348 4 0.588232 0.826775 0.461218
349 1 0.568617 0.804339 0.475756
350 3 0.559256 0.804541 0.460747
351 4 0.562058 0.803126 0.484008
352 1 0.56849 0.793559 0.449509
353 3 0.565624 0.778871 0.455874
354 4 0.576259 0.793491 0.442358
355 1 0.551678 0.775637 0.442279
356 3 0.548558 0.771325 0.459882
357 4 0.556836 0.766878 0.439293
358 1 0.531746 0.777052 0.460118
359 3 0.528116 0.762027 0.454774
360 4 0.523849 0.783115 0.457525
361 1 0.526205 0.755356 0.474813
362 3 0.522448 0.761016 0.491552
363 4 0.534356 0.749966 0.476699
364 1 0.508119 0.748619 0.493438
365 3 0.512386 0.750034 0.511434
366 4 0.500414 0.742488 0.490216
367 1 0.523976 0.736761 0.511591
368 3 0.529198 0.745385 0.525737
369 4 0.530026 0.729147 0.508762
370 1 0.539642 0.75603 0.512613
371 3 0.537923 0.76836 0.52613
372 4 0.546201 0.759601 0.503969
373 1 0.522257 0.773211 0.518585
374 3 0.516653 0.776984 0.53556
375 4 0.514997 0.774626 0.510491
376 1 0.511558 0.759264 0.540118
377 3 0.516462 0.756232 0.5578
378 4 0.505572 0.751381 0.536817
379 1 0.532319 0.751449 0.551041
380 3 0.539005 0.756771 0.566601
381 4 0.539387 0.747271 0.543576
382 1 0.536776 0.775771 0.562122
383 3 0.534993 0.778601 0.580747
384 4 0.534102 0.783991 0.554656
385 1 0.519582 0.769303 0.582475
386 3 0.525441 0.76041 0.596149
387 4 0.509839 0.768495 0.580511
388 1 0.527415 0.745452 0.585462
389 3 0.537986 0.741207 0.598664
390 4 0.526969 0.737367 0.577682
391 1 0.552187 0.749764 0.589862
392 3 0.556582 0.753537 0.60723
393 4 0.55811 0.754144 0.581375
394 1 0.546711 0.769371 0.607466
395 3 0.543463 0.766743 0.625855
396 4 0.543336 0.778467 0.603536
397 1 0.531682 0.753807 0.622475
398 3 0.53805 0.745924 0.636699
399 4 0.52404 0.748754 0.617367
400 1 0.549513 0.736626 0.624204
401 3 0.558174 0.736828 0.639843
402 4 0.554416 0.732516 0.61501
403 1 0.564733 0.753672 0.636149
404 3 0.563204 0.757647 0.654538
405 4 0.571101 0.760275 0.631434
406 1 0.546329 0.764654 0.652967
407 3 0.546902 0.76041 0.671041
408 4 0.537159 0.768023 0.649823
409 1 0.544737 0.741275 0.667033
410 3 0.552633 0.742488 0.682829
411 4 0.542444 0.732718 0.661139
412 1 0.569 0.742892 0.671827
413 3 0.573839 0.749427 0.68778
414 5 0.560275 0.682181 0.631524
415 1 0.568617 0.766676 0.682593
416 3 0.564351 0.770651 0.700118
417 4 0.566198 0.77503 0.675363
418 1 0.54894 0.762364 0.700039
419 3 0.55136 0.757445 0.7178
420 4 0.540088 0.75859 0.696424
421 1 0.559829 0.741275 0.712299
422 3 0.563905 0.739456 0.730059
423 4 0.563905 0.733324 0.70554
424 1 0.576323 0.751853 0.731866
425 3 0.57333 0.754885 0.749862
426 4 0.584411 0.756839 0.728644
427 1 0.559065 0.765059 0.74609
428 3 0.557792 0.759197 0.764008
429 4 0.551996 0.770583 0.740982
430 1 0.549322 0.743027 0.759371
431 3 0.554862 0.734268 0.772731
432 4 0.543336 0.737165 0.753242
433 1 0.571228 0.732448 0.76275
434 3 0.578679 0.733055 0.779018
435 4 0.577851 0.73137 0.75387
436 1 0.578743 0.752863 0.779961
437 3 0.577151 0.752122 0.798821
438 4 0.577851 0.762768 0.775717
439 1 0.559065 0.748821 0.796621
440 3 0.557155 0.738512 0.811081
441 5 0.565115 0.694661 0.753816
442 1 0.567471 0.725037 0.801179
443 3 0.579189 0.717154 0.809902
444 4 0.564605 0.71803 0.793242
445 1 0.591097 0.73036 0.805187
446 3 0.597656 0.733998 0.821532
447 4 0.596765 0.736222 0.797957
448 1 0.584538 0.744374 0.829627
449 3 0.5697 0.74936 0.828212
450 4 0.590015 0.753133 0.828448
451 1 0.56607 0.745115 0.849666
452 3 0.556263 0.757041 0.852417
453 4 0.566134 0.73986 0.860354
454 1 0.568554 0.770786 0.850923
455 3 0.565433 0.784261 0.841729
456 4 0.575813 0.77503 0.856503
457 1 0.565433 0.775839 0.822004
458 3 0.553588 0.766069 0.817839
459 4 0.573203 0.77274 0.815088
460 1 0.546074 0.777591 0.802908
461 3 0.531809 0.779073 0.809037
462 4 0.548558 0.77247 0.792692
463 1 0.529453 0.761757 0.816031
464 3 0.524868 0.758523 0.832849
465 4 0.528944 0.751246 0.812731
466 1 0.539451 0.767484 0.842986
467 3 0.530599 0.766339 0.858468
468 4 0.538368 0.77786 0.845265
469 1 0.533529 0.74781 0.860904
470 3 0.520346 0.739995 0.864912
471 4 0.534548 0.75091 0.872692
472 1 0.513278 0.741342 0.844637
473 3 0.498949 0.747204 0.846601
474 5 0.521493 0.676624 0.791076
475 1 0.503598 0.764924 0.842279
476 3 0.506145 0.767821 0.823183
477 4 0.508374 0.773144 0.847544
478 1 0.489333 0.771459 0.820039
479 3 0.485831 0.784665 0.810373
480 4 0.47959 0.76836 0.818546
481 1 0.492135 0.796995 0.825383
482 3 0.493536 0.808045 0.812181
483 4 0.49551 0.80124 0.836071
484 1 0.508756 0.801038 0.804008
485 3 0.518181 0.813098 0.808409
486 4 0.509839 0.793694 0.795678
487 1 0.532255 0.800835 0.811002
488 3 0.529771 0.812357 0.824519
489 4 0.53684 0.80124 0.800393
490 1 0.546074 0.81869 0.822711
491 3 0.543081 0.825697 0.806365
492 4 0.556072 0.818825 0.824283
493 1 0.539897 0.84335 0.814538
494 3 0.544355 0.847123 0.796935
495 4 0.539196 0.8513 0.822475
496 1 0.562759 0.847325 0.801493
497 3 0.56416 0.843215 0.783576
498 4 0.570783 0.847056 0.80833
499 1 0.560084 0.824754 0.785776
500 3 0.554671 0.827719 0.767544
501 4 0.557473 0.815524 0.790177
502 1 0.538496 0.832368 0.774774
503 3 0.538559 0.841935 0.759843
504 4 0.53079 0.833715 0.782161
505 1 0.546838 0.856623 0.770766
506 3 0.553843 0.861744 0.754263
507 4 0.550786 0.862215 0.779646
508 1 0.566516 0.848605 0.754735
509 3 0.564351 0.846112 0.735639
510 4 0.574922 0.84335 0.7578
511 1 0.548303 0.837017 0.739018
512 3 0.54289 0.845236 0.724165
513 5 0.554544 0.76611 0.691797
514 1 0.538368 0.859925 0.735481
515 3 0.543208 0.868279 0.720707
516 4 0.534611 0.865988 0.743654
517 1 0.559893 0.87084 0.727387
518 3 0.563459 0.869627 0.709627
519 4 0.567726 0.872928 0.734538
520 1 0.564223 0.851368 0.708291
521 3 0.559384 0.853322 0.690295
522 4 0.566389 0.841329 0.709234
523 1 0.542253 0.854265 0.696031
524 3 0.543208 0.865719 0.681886
525 4 0.533338 0.850896 0.699332
526 1 0.543654 0.880205 0.695953
527 3 0.548048 0.88802 0.679921
528 4 0.544928 0.885191 0.706248
529 1 0.564669 0.884315 0.681493
530 3 0.561358 0.886269 0.66224
531 4 0.573776 0.882967 0.685422
532 1 0.567662 0.870098 0.655953
533 3 0.556263 0.871648 0.644086
534 4 0.575368 0.863967 0.653988
535 1 0.545565 0.858308 0.653281
536 3 0.535566 0.865517 0.64275
537 4 0.54359 0.850963 0.661375
538 1 0.527606 0.875152 0.660589
539 3 0.523594 0.890716 0.658625
540 4 0.521811 0.872996 0.670177
541 1 0.539133 0.896173 0.652574
542 3 0.540088 0.896308 0.634499
543 4 0.543782 0.902372 0.659804
544 1 0.557346 0.894623 0.633477
545 3 0.554607 0.892467 0.615246
546 4 0.566771 0.893411 0.636935
547 1 0.549131 0.874545 0.61666
548 3 0.540406 0.879935 0.602043
549 4 0.546711 0.864708 0.619646
550 1 0.527415 0.885797 0.613674
551 3 0.526524 0.896106 0.599057
552 4 0.520983 0.887414 0.622475
553 1 0.537604 0.909177 0.607859
554 3 0.54117 0.912276 0.59057
555 4 0.542699 0.914095 0.615717
556 1 0.552315 0.897925 0.588605
557 3 0.547793 0.896443 0.570923
558 4 0.558428 0.890581 0.590648
559 1 0.532764 0.886403 0.576424
560 3 0.525568 0.895567 0.562986
561 4 0.52767 0.878116 0.580825
562 1 0.520537 0.909446 0.576267
563 3 0.52092 0.91962 0.561572
564 4 0.518054 0.914634 0.586169
565 1 0.538814 0.922315 0.562829
566 3 0.538814 0.921304 0.543811
567 4 0.547475 0.924673 0.567701
568 1 0.540343 0.902978 0.542633
569 3 0.532701 0.904123 0.526916
570 4 0.542763 0.893006 0.545462
571 1 0.517035 0.906145 0.536031
572 3 0.514233 0.917868 0.522829
573 4 0.508947 0.903921 0.542475
574 1 0.519519 0.932017 0.536896
575 3 0.521429 0.939294 0.519921
576 4 0.523467 0.937475 0.546012
577 1 0.53735 0.930804 0.516778
578 3 0.528116 0.923056 0.504283
579 4 0.544864 0.924067 0.517485
580 1 0.533019 0.933567 0.486758
581 3 0.535694 0.923999 0.472456
582 4 0.533656 0.943269 0.481493
583 1 0.551041 0.917262 0.47945
584 3 0.544482 0.904393 0.487701
585 4 0.560084 0.917801 0.484479
586 1 0.544928 0.894623 0.468448
587 3 0.550277 0.880676 0.460904
588 4 0.53684 0.896038 0.461847
589 1 0.56174 0.889503 0.446601
590 3 0.573457 0.89934 0.449823
591 4 0.559638 0.892737 0.434892
592 1 0.585748 0.885258 0.450609
593 3 0.597975 0.875488 0.450845
594 4 0.586003 0.885056 0.462554
595 1 0.592498 0.864304 0.434499
596 3 0.603452 0.872928 0.425069
597 4 0.587276 0.859116 0.42609
598 1 0.616061 0.858577 0.425305
599 3 0.623129 0.8513 0.411081
600 4 0.622556 0.855612 0.433713
601 1 0.6081 0.839914 0.407308
602 3 0.606572 0.850896 0.393242
603 4 0.599312 0.835063 0.409509
604 1 0.610584 0.838297 0.37721
605 3 0.5953 0.840453 0.376424
606 4 0.613513 0.830751 0.370609
607 1 0.596128 0.850963 0.358507
608 3 0.605871 0.850896 0.344047
609 4 0.593326 0.859655 0.364008
610 1 0.594345 0.854534 0.328723
611 3 0.590015 0.870098 0.330452
612 4 0.587149 0.850222 0.321493
613 1 0.604152 0.87724 0.319293
614 3 0.606954 0.878049 0.337917
615 4 0.596255 0.882496 0.314656
616 1 0.616443 0.894084 0.336582
617 3 0.603261 0.896914 0.345462
618 5 0.612685 0.830841 0.320997
619 1 0.612685 0.898868 0.365422
620 3 0.601477 0.887212 0.366444
621 4 0.606699 0.906886 0.366365
622 1 0.608546 0.879059 0.383969
623 3 0.595491 0.872793 0.389548
624 4 0.614596 0.875758 0.393084
625 1 0.588359 0.88829 0.397171
626 3 0.583264 0.901698 0.388998
627 4 0.58925 0.892198 0.408566
628 1 0.569891 0.892872 0.378075
629 3 0.555881 0.891389 0.385697
630 4 0.567726 0.886201 0.369273
631 1 0.557346 0.905875 0.397878
632 3 0.547093 0.911535 0.385226
633 4 0.560402 0.914904 0.403301
634 1 0.53321 0.905269 0.396149
635 3 0.519073 0.904999 0.401257
636 4 0.532191 0.897251 0.387976
637 1 0.521365 0.905875 0.422475
638 3 0.508183 0.913219 0.425855
639 4 0.524741 0.904595 0.433949
640 1 0.513341 0.929996 0.418468
641 3 0.502706 0.935117 0.405737
642 4 0.519073 0.938822 0.42279
643 1 0.513915 0.92784 0.387819
644 3 0.529198 0.932085 0.386483
645 4 0.509648 0.937205 0.384519
646 1 0.531363 0.918475 0.370373
647 3 0.53614 0.93195 0.360079
648 4 0.528179 0.912411 0.361257
649 1 0.553525 0.930131 0.366287
650 3 0.562822 0.918609 0.361257
651 4 0.559256 0.932691 0.375324
652 1 0.551933 0.932422 0.342397
653 3 0.561358 0.944414 0.347426
654 4 0.553206 0.930333 0.331316
655 1 0.549131 0.95789 0.344361
656 3 0.536203 0.955397 0.35332
657 4 0.548749 0.964358 0.334695
658 1 0.539069 0.969209 0.368723
659 3 0.52888 0.976216 0.357642
660 4 0.54289 0.976688 0.375088
661 1 0.514233 0.969681 0.368802
662 3 0.511304 0.984773 0.375796
663 4 0.507737 0.964156 0.37556
664 1 0.504171 0.991443 0.358271
665 3 0.489461 0.99717 0.356228
666 4 0.508056 0.997035 0.348919
667 1 0.48201 0.97972 0.357092
668 3 0.470101 0.986525 0.347662
669 4 0.476915 0.979652 0.36778
670 1 0.478889 0.989422 0.330059
671 3 0.481309 0.993262 0.312377
672 4 0.478889 0.99973 0.332574
673 1 0.496657 0.981943 0.311827
674 3 0.487486 0.971971 0.301847
675 4 0.504298 0.976823 0.315835
676 1 0.49723 0.97123 0.284479
677 3 0.50449 0.959035 0.294853
678 4 0.503471 0.973319 0.274656
679 1 0.497039 0.945088 0.285422
680 3 0.501815 0.935049 0.271434
681 4 0.488505 0.939968 0.284086
682 1 0.518818 0.939024 0.274656
683 3 0.5192 0.924606 0.284244
684 4 0.52716 0.942865 0.278507
685 1 0.527351 0.916319 0.266326
686 3 0.54047 0.923528 0.27277
687 4 0.528944 0.913826 0.254695
688 1 0.54601 0.908772 0.283458
689 3 0.54722 0.89395 0.277092
690 4 0.54531 0.907694 0.295481
691 1 0.565115 0.894017 0.275756
692 3 0.564351 0.888425 0.293438
693 4 0.574667 0.896779 0.274028
694 1 0.566261 0.874478 0.269784
695 3 0.554098 0.86491 0.271198
696 4 0.572948 0.86673 0.267426
697 1 0.545246 0.874141 0.25446
698 3 0.533338 0.86673 0.261925
699 4 0.544546 0.867336 0.246051
700 1 0.532064 0.87724 0.2789
701 3 0.527351 0.892535 0.278585
702 4 0.536203 0.876971 0.290688
703 1 0.509839 0.887616 0.279843
704 3 0.511558 0.890716 0.298153
705 4 0.501242 0.882428 0.2778
706 1 0.504362 0.90756 0.29831
707 3 0.494173 0.897521 0.30389
708 4 0.500159 0.915847 0.293674
709 1 0.497102 0.900687 0.326444
710 3 0.484493 0.907694 0.319921
711 5 0.501242 0.828857 0.318245
712 1 0.473285 0.899542 0.333438
713 3 0.462459 0.908772 0.340668
714 4 0.468955 0.891187 0.338546
715 1 0.474432 0.9209 0.350098
716 3 0.464243 0.929592 0.338782
717 4 0.482583 0.926897 0.350334
718 1 0.454881 0.93579 0.354263
719 3 0.455009 0.94017 0.371945
720 4 0.446794 0.930131 0.35222
721 1 0.447239 0.957283 0.36833
722 3 0.461313 0.961124 0.373438
723 5 0.449723 0.891447 0.350713
724 1 0.457556 0.962269 0.394735
725 3 0.459148 0.947649 0.399529
726 4 0.452461 0.965908 0.404086
727 1 0.477234 0.949266 0.402043
728 3 0.479717 0.956812 0.418389
729 4 0.485449 0.949872 0.395442
730 1 0.480991 0.940978 0.429705
731 3 0.485321 0.926021 0.42609
732 4 0.472457 0.941248 0.435992
733 1 0.493918 0.923797 0.445029
734 3 0.482774 0.912478 0.446287
735 4 0.497357 0.926358 0.457053
736 1 0.492199 0.898396 0.438821
737 3 0.501751 0.890177 0.450688
738 4 0.496466 0.895028 0.428291
739 1 0.489015 0.878588 0.458153
740 3 0.475642 0.871918 0.451945
741 4 0.489142 0.881148 0.470806
742 1 0.480481 0.85413 0.459332
743 3 0.479017 0.842878 0.472927
744 4 0.48201 0.84719 0.450138
745 1 0.489461 0.851368 0.487387
746 3 0.486786 0.856488 0.505305
747 4 0.498886 0.850896 0.488173
748 1 0.473731 0.868616 0.497996
749 3 0.474559 0.880205 0.511984
750 4 0.468127 0.863361 0.506326
751 1 0.491307 0.885932 0.504126
752 3 0.489843 0.900081 0.512299
753 4 0.498695 0.886201 0.496346
754 1 0.478635 0.907088 0.498546
755 3 0.467554 0.91423 0.507741
756 4 0.477425 0.911063 0.487544
757 1 0.458129 0.898262 0.513242
758 3 0.457174 0.903854 0.530923
759 4 0.454308 0.888425 0.511827
760 1 0.473922 0.896779 0.535953
761 3 0.476661 0.909648 0.545855
762 4 0.481055 0.889705 0.535403
763 1 0.4815 0.919687 0.52888
764 3 0.474814 0.934106 0.533988
765 4 0.487104 0.922315 0.518978
766 1 0.458193 0.928244 0.52943
767 3 0.450105 0.932422 0.544047
768 4 0.45157 0.924606 0.521415
769 1 0.454372 0.919418 0.557485
770 3 0.459912 0.921439 0.57446
771 4 0.449468 0.910659 0.560629
772 1 0.47717 0.924269 0.56668
773 3 0.479271 0.928716 0.584754
774 4 0.484557 0.92656 0.559371
775 1 0.472457 0.946503 0.581375
776 3 0.466026 0.94812 0.59835
777 5 0.473158 0.884309 0.550054
778 1 0.451952 0.936734 0.593084
779 3 0.454563 0.929592 0.610609
780 4 0.444628 0.933432 0.586719
781 1 0.462714 0.915106 0.6022
782 3 0.469719 0.915645 0.619411
783 4 0.465898 0.907964 0.594499
784 1 0.480927 0.9304 0.613438
785 3 0.479208 0.934982 0.631591
786 4 0.48685 0.936868 0.607073
787 1 0.46386 0.943 0.629705
788 3 0.463224 0.936397 0.646837
789 4 0.455773 0.948457 0.62554
790 1 0.456601 0.920563 0.640472
791 3 0.464497 0.916251 0.655874
792 4 0.452843 0.911872 0.634735
793 1 0.479845 0.913758 0.645029
794 3 0.485958 0.916386 0.661768
795 4 0.486277 0.913354 0.634892
796 1 0.48443 0.935723 0.659568
797 3 0.482965 0.935858 0.678585
798 4 0.484812 0.944684 0.654303
799 1 0.466153 0.932354 0.6789
800 3 0.469528 0.923258 0.693438
801 4 0.456537 0.931748 0.677014
802 1 0.473349 0.907897 0.682986
803 3 0.483984 0.903652 0.695874
804 4 0.472649 0.899474 0.675678
805 1 0.49672 0.912343 0.684558
806 3 0.504744 0.917868 0.699332
807 4 0.501942 0.913489 0.674263
808 1 0.496593 0.934443 0.700747
809 3 0.501306 0.934173 0.718821
810 4 0.491307 0.943336 0.697603
811 1 0.490543 0.923999 0.728094
812 3 0.501369 0.918879 0.738939
813 4 0.482265 0.919485 0.73053
814 1 0.506273 0.904932 0.724479
815 3 0.519964 0.908638 0.731159
816 4 0.504999 0.898868 0.715049
817 1 0.52213 0.923056 0.716699
818 3 0.529771 0.929187 0.730923
819 4 0.52213 0.928716 0.706169
820 1 0.516844 0.937744 0.740904
821 3 0.52595 0.935251 0.756228
822 4 0.508119 0.942124 0.742947
823 1 0.519073 0.917868 0.760236
824 3 0.532319 0.914702 0.76668
825 4 0.512705 0.910187 0.761493
826 1 0.539451 0.90985 0.746876
827 3 0.552697 0.915982 0.752613
828 4 0.540279 0.906347 0.73556
829 1 0.551041 0.933432 0.745305
830 3 0.55932 0.937138 0.760865
831 4 0.549576 0.941922 0.738625
832 1 0.546201 0.936531 0.77446
833 3 0.554926 0.929929 0.788291
834 4 0.536713 0.936666 0.778782
835 1 0.554225 0.912141 0.780825
836 3 0.568936 0.911063 0.78664
837 4 0.551678 0.903921 0.77446
838 1 0.575686 0.918744 0.768959
839 3 0.586958 0.923393 0.778703
840 4 0.577469 0.922517 0.757642
841 1 0.577215 0.93889 0.787662
842 3 0.583519 0.937609 0.805029
843 4 0.571165 0.946907 0.786876
844 1 0.571228 0.927166 0.812967
845 3 0.576196 0.91551 0.824283
846 4 0.561676 0.926425 0.815167
847 1 0.582691 0.904932 0.806365
848 3 0.578616 0.890177 0.812809
849 4 0.591161 0.905201 0.812731
850 1 0.561421 0.895095 0.81336
851 3 0.551551 0.904528 0.805108
852 4 0.560721 0.897386 0.825226
853 1 0.539069 0.891187 0.801336
854 3 0.533656 0.897386 0.818153
855 4 0.535821 0.882091 0.798507
856 1 0.522321 0.909311 0.808251
857 3 0.512004 0.898396 0.814067
858 4 0.518054 0.91551 0.800314
859 1 0.507992 0.909581 0.83277
860 3 0.497803 0.918138 0.824204
861 4 0.509329 0.916049 0.841572
862 1 0.486786 0.902709 0.821925
863 3 0.475196 0.912545 0.81776
864 4 0.483474 0.893208 0.82279
865 1 0.473731 0.918475 0.839214
866 3 0.469464 0.9335 0.833635
867 4 0.474177 0.917194 0.851395
868 1 0.484812 0.939496 0.828055
869 3 0.477807 0.947918 0.814145
870 4 0.494364 0.941652 0.827898
871 1 0.479972 0.933702 0.799136
872 3 0.468318 0.928851 0.787741
873 4 0.486659 0.928783 0.792456
874 1 0.456728 0.925077 0.802908
875 3 0.448004 0.923124 0.787583
876 5 0.465389 0.851095 0.759145
877 1 0.445393 0.940305 0.782711
878 3 0.444819 0.934375 0.765108
879 4 0.444374 0.951017 0.784204
880 1 0.462587 0.935521 0.761808
881 3 0.461759 0.922113 0.751513
882 4 0.472012 0.939429 0.762122
883 1 0.463351 0.910928 0.769902
884 3 0.454499 0.900013 0.760865
885 4 0.465771 0.908233 0.781139
886 1 0.439534 0.909109 0.765972
887 3 0.436413 0.905134 0.748448
888 4 0.43272 0.914836 0.771552
889 1 0.44189 0.919687 0.738389
890 3 0.444628 0.908975 0.724558
891 4 0.445074 0.92912 0.73501
892 1 0.459148 0.903248 0.732338
893 3 0.454181 0.889503 0.724322
894 4 0.467363 0.902843 0.73831
895 1 0.444692 0.883978 0.741297
896 3 0.435076 0.878588 0.727937
897 4 0.441381 0.881754 0.752456
898 1 0.425651 0.89496 0.725972
899 3 0.422913 0.890513 0.707819
900 4 0.422021 0.905067 0.72833
901 1 0.438005 0.896173 0.700039
902 3 0.440107 0.883708 0.68833
903 4 0.444628 0.903584 0.69666
904 1 0.446348 0.871715 0.703183
905 3 0.438515 0.858847 0.696739
906 5 0.443864 0.801406 0.660624
907 1 0.424441 0.862687 0.710727
908 3 0.415589 0.858712 0.696503
909 4 0.419283 0.864843 0.720864
910 1 0.415016 0.876027 0.687308
911 3 0.415971 0.866999 0.671356
912 4 0.416226 0.886403 0.685422
913 1 0.433357 0.869896 0.668684
914 3 0.433293 0.856421 0.658075
915 4 0.442017 0.874882 0.667033
916 1 0.435331 0.844226 0.673792