ITEM: TIMESTEP
0
ITEM: NUMBER OF ATOMS
8634
ITEM: BOX BOUNDS ss ss ss
30.2 150.63
14.14 161.95
-5.74 127.35
ITEM: ATOMS id type xs ys zs
1 1 0.360458 0.812259 0.887219
2 3 0.347505 0.823287 0.890675
3 4 0.358881 0.80414 0.879405
4 1 0.351241 0.83242 0.871741
5 3 0.356224 0.825249 0.855962
6 4 0.356722 0.841824 0.874296
7 1 0.343353 0.837494 0.844692
8 3 0.340198 0.826872 0.832069
9 4 0.354397 0.840268 0.839432
10 1 0.325417 0.81598 0.844241
11 3 0.318774 0.80935 0.828161
12 4 0.318525 0.813206 0.853858
13 1 0.303994 0.823422 0.823503
14 3 0.309723 0.822813 0.805846
15 4 0.295607 0.830932 0.824179
16 1 0.328407 0.833705 0.807273
17 3 0.337873 0.824775 0.795251
18 4 0.335714 0.841553 0.810354
19 1 0.342772 0.810838 0.808851
20 3 0.339118 0.801637 0.79465
21 4 0.348003 0.806035 0.818168
22 1 0.316366 0.798457 0.800135
23 3 0.314041 0.796901 0.782253
24 4 0.30524 0.797443 0.805169
25 1 0.312132 0.815371 0.779247
26 3 0.322096 0.81253 0.763543
27 4 0.307814 0.825113 0.781652
28 1 0.342855 0.814018 0.771358
29 3 0.348584 0.802923 0.759711
30 4 0.353317 0.816859 0.777143
31 1 0.339699 0.787497 0.770757
32 3 0.333555 0.782356 0.754452
33 4 0.33779 0.781544 0.780074
34 1 0.312713 0.790542 0.755354
35 3 0.315536 0.79088 0.736494
36 4 0.301835 0.795751 0.758509
37 1 0.327825 0.806982 0.73702
38 3 0.338869 0.801299 0.72327
39 4 0.332143 0.816589 0.740401
40 1 0.353151 0.79088 0.736419
41 3 0.352902 0.780597 0.722519
42 4 0.359794 0.788377 0.745435
43 1 0.33397 0.770787 0.729506
44 3 0.331728 0.768825 0.711999
45 4 0.324255 0.768284 0.736569
46 1 0.317944 0.783438 0.708543
47 3 0.326663 0.781476 0.692614
48 4 0.309557 0.791083 0.70952
49 1 0.343934 0.793722 0.695695
50 3 0.354397 0.78655 0.683297
51 4 0.350577 0.801637 0.700278
52 1 0.360791 0.771057 0.694793
53 3 0.356057 0.761315 0.680742
54 4 0.366271 0.766254 0.703584
55 1 0.335714 0.757391 0.686077
56 3 0.333306 0.756579 0.667744
57 4 0.324753 0.755903 0.691262
58 1 0.33015 0.775455 0.665414
59 3 0.340945 0.774846 0.650612
60 4 0.326912 0.784994 0.669397
61 1 0.361787 0.77444 0.659328
62 3 0.364776 0.763751 0.645879
63 4 0.371585 0.776876 0.66594
64 1 0.358632 0.74907 0.656623
65 3 0.354231 0.744537 0.639717
66 4 0.356639 0.742372 0.665264
67 1 0.331728 0.751844 0.641371
68 3 0.332143 0.753129 0.622887
69 4 0.321432 0.755903 0.645728
70 1 0.347754 0.766998 0.622211
71 3 0.357967 0.759894 0.608385
72 5 0.34219 0.719374 0.579679
73 1 0.369675 0.748529 0.619506
74 3 0.366686 0.73696 0.607033
75 4 0.378726 0.744808 0.626043
76 1 0.347837 0.730938 0.614922
77 3 0.340613 0.727759 0.598016
78 4 0.339949 0.727285 0.623563
79 1 0.336046 0.746296 0.59441
80 3 0.340364 0.741357 0.57803
81 4 0.33314 0.756512 0.596138
82 1 0.364278 0.743251 0.580359
83 3 0.365524 0.730465 0.569765
84 4 0.375903 0.745619 0.585243
85 1 0.363531 0.717543 0.585919
86 3 0.355974 0.706853 0.573972
87 4 0.365025 0.713686 0.596514
88 1 0.335132 0.713957 0.5754
89 3 0.325915 0.716122 0.560523
90 4 0.325417 0.714431 0.582688
91 1 0.338288 0.730735 0.55331
92 3 0.336046 0.727623 0.535728
93 4 0.345014 0.73953 0.553235
94 1 0.355476 0.718084 0.533699
95 3 0.360624 0.703606 0.540236
96 4 0.367516 0.721534 0.533173
97 1 0.349747 0.694134 0.524382
98 3 0.369094 0.691361 0.521076
99 4 0.345097 0.692105 0.514163
100 1 0.370921 0.676882 0.534676
101 3 0.363032 0.662743 0.528665
102 4 0.371004 0.673026 0.545345
103 1 0.380802 0.659969 0.514163
104 3 0.396828 0.659631 0.524457
105 4 0.382712 0.663419 0.503419
106 1 0.405298 0.642379 0.517695
107 3 0.413933 0.651039 0.50417
108 4 0.403637 0.632231 0.51514
109 1 0.435191 0.649685 0.51236
110 3 0.442083 0.664028 0.505372
111 4 0.438014 0.645559 0.501916
112 1 0.431869 0.675462 0.51792
113 3 0.441501 0.687978 0.52581
114 4 0.42149 0.680468 0.521602
115 1 0.45678 0.677897 0.535577
116 3 0.468737 0.690346 0.539485
117 4 0.463589 0.670049 0.540311
118 1 0.473719 0.695826 0.519949
119 3 0.47073 0.711048 0.513262
120 4 0.483185 0.693525 0.511984
121 1 0.447397 0.710845 0.514389
122 3 0.446483 0.717678 0.530618
123 4 0.435938 0.70638 0.512135
124 1 0.445653 0.735403 0.523405
125 3 0.436934 0.738313 0.539485
126 4 0.445819 0.743996 0.516718
127 1 0.415677 0.731953 0.533398
128 3 0.41219 0.725864 0.549628
129 4 0.405962 0.729585 0.526411
130 1 0.424728 0.710101 0.547299
131 3 0.429212 0.71071 0.56428
132 4 0.429627 0.701103 0.542715
133 1 0.446317 0.724444 0.561049
134 3 0.442581 0.73175 0.576452
135 4 0.457693 0.7283 0.556015
136 1 0.423815 0.739733 0.570141
137 3 0.416591 0.73723 0.585844
138 4 0.413435 0.743996 0.56413
139 1 0.409948 0.71964 0.583064
140 3 0.416175 0.714837 0.599294
141 4 0.404384 0.711927 0.577053
142 1 0.438595 0.712536 0.595387
143 3 0.441003 0.718896 0.611466
144 4 0.450303 0.71098 0.591029
145 1 0.44009 0.736621 0.604553
146 3 0.431703 0.74129 0.619355
147 4 0.444325 0.744808 0.597866
148 1 0.409366 0.735877 0.613044
149 3 0.404716 0.731006 0.630701
150 4 0.399734 0.73378 0.60538
151 1 0.416092 0.714701 0.628372
152 3 0.420991 0.716325 0.646029
153 4 0.421656 0.70638 0.623713
154 1 0.438761 0.727691 0.643099
155 3 0.433364 0.735809 0.658201
156 4 0.449805 0.731885 0.638064
157 1 0.418168 0.746567 0.649335
158 3 0.40754 0.744605 0.664513
159 4 0.413103 0.753332 0.641821
160 1 0.395001 0.729585 0.657224
161 3 0.395749 0.725052 0.674807
162 4 0.389604 0.722414 0.650162
163 1 0.416424 0.715446 0.672928
164 3 0.418833 0.720384 0.69036
165 4 0.427385 0.71098 0.669322
166 1 0.426721 0.73811 0.683898
167 3 0.418085 0.743116 0.699376
168 4 0.43245 0.746093 0.678563
169 1 0.397824 0.74501 0.691863
170 3 0.389687 0.740478 0.706815
171 5 0.40754 0.698416 0.651596
172 1 0.392012 0.722279 0.704185
173 3 0.396247 0.721737 0.721993
174 4 0.392012 0.71213 0.700879
175 1 0.419829 0.724985 0.718236
176 3 0.42041 0.730938 0.734841
177 4 0.431039 0.725526 0.712375
178 1 0.41493 0.748393 0.729657
179 3 0.403637 0.749273 0.744909
180 4 0.416591 0.757256 0.724322
181 1 0.383874 0.745958 0.735066
182 3 0.378311 0.749543 0.751522
183 4 0.37582 0.743319 0.726726
184 1 0.37964 0.732427 0.758885
185 3 0.385369 0.740478 0.773236
186 4 0.379391 0.722549 0.75866
187 1 0.407208 0.739801 0.770381
188 3 0.404799 0.752317 0.78105
189 4 0.419248 0.737501 0.766624
190 1 0.400233 0.765307 0.765422
191 3 0.390434 0.77417 0.777294
192 4 0.401312 0.770719 0.755729
193 1 0.370506 0.764495 0.774063
194 3 0.36926 0.767675 0.791645
195 4 0.36104 0.759015 0.768803
196 1 0.379141 0.752453 0.799008
197 3 0.385701 0.761586 0.812533
198 4 0.384456 0.742643 0.799835
199 1 0.403886 0.769704 0.801563
200 3 0.398821 0.78222 0.812082
201 4 0.413601 0.771531 0.7945
202 1 0.381882 0.78858 0.798708
203 3 0.374907 0.793519 0.815088
204 4 0.374491 0.78973 0.789316
205 1 0.360957 0.778161 0.817342
206 3 0.361455 0.781341 0.834924
207 4 0.355144 0.768554 0.815313
208 1 0.3813 0.77126 0.837253
209 3 0.401063 0.768622 0.834248
210 4 0.380719 0.761383 0.841386
211 1 0.405962 0.786753 0.833196
212 3 0.41219 0.784724 0.849801
213 5 0.395084 0.735363 0.777067
214 1 0.434028 0.780597 0.845293
215 3 0.440339 0.768419 0.854535
216 4 0.438097 0.787971 0.853332
217 1 0.422984 0.756782 0.851153
218 3 0.435938 0.744199 0.850627
219 4 0.410529 0.754482 0.850703
220 1 0.440173 0.745822 0.830641
221 3 0.437931 0.730059 0.829814
222 4 0.446317 0.751844 0.822977
223 1 0.423649 0.728232 0.813885
224 3 0.427551 0.712604 0.815238
225 4 0.418334 0.731683 0.803967
226 1 0.445155 0.713078 0.802615
227 3 0.459354 0.710845 0.815463
228 4 0.452628 0.715716 0.793373
229 1 0.461015 0.692781 0.813209
230 3 0.473387 0.698058 0.800511
231 4 0.455783 0.683648 0.811631
232 1 0.492236 0.695555 0.811631
233 3 0.501536 0.69772 0.795326
234 4 0.501453 0.69339 0.820272
235 1 0.498796 0.681212 0.788414
236 3 0.494727 0.687978 0.772485
237 4 0.500374 0.670523 0.787212
238 1 0.473055 0.68994 0.775415
239 3 0.476791 0.702862 0.764145
240 4 0.460433 0.689128 0.778947
241 1 0.483434 0.714701 0.780224
242 3 0.494644 0.721873 0.767751
243 4 0.486258 0.718152 0.791044
244 1 0.512082 0.708883 0.768653
245 3 0.514988 0.71186 0.750019
246 4 0.519555 0.701103 0.771809
247 1 0.49863 0.699614 0.744834
248 3 0.494395 0.710101 0.732136
249 4 0.493731 0.68994 0.743858
250 1 0.476293 0.717407 0.742881
251 3 0.4792 0.729991 0.731911
252 4 0.467492 0.718761 0.751221
253 1 0.498215 0.73723 0.741453
254 3 0.506933 0.740072 0.725374
255 4 0.504941 0.741357 0.749718
256 1 0.514656 0.723429 0.721241
257 3 0.510006 0.72715 0.704486
258 4 0.519804 0.713754 0.722293
259 1 0.48825 0.720114 0.705688
260 3 0.483434 0.731412 0.694267
261 4 0.478452 0.713754 0.707792
262 1 0.480528 0.744943 0.709745
263 3 0.488333 0.753738 0.696296
264 4 0.479449 0.749679 0.719739
265 1 0.510172 0.750085 0.702307
266 3 0.515486 0.751776 0.685326
267 4 0.521216 0.748799 0.708919
268 1 0.508428 0.733983 0.679315
269 3 0.502865 0.740681 0.663837
270 4 0.506435 0.724241 0.681268
271 1 0.481691 0.745213 0.670524
272 3 0.481192 0.758406 0.660981
273 4 0.469983 0.744131 0.674731
274 1 0.494893 0.768419 0.675708
275 3 0.50411 0.77444 0.66053
276 4 0.498879 0.772411 0.686077
277 1 0.522295 0.762736 0.661808
278 3 0.52188 0.767066 0.644827
279 4 0.53118 0.755632 0.664588
280 1 0.5071 0.7534 0.63859
281 3 0.505771 0.764292 0.625216
282 4 0.49863 0.746025 0.638666
283 1 0.489745 0.775387 0.636186
284 3 0.497883 0.78743 0.626719
285 4 0.480611 0.779447 0.643099
286 1 0.515154 0.790542 0.64107
287 3 0.525118 0.794736 0.626268
288 4 0.521133 0.793113 0.650913
289 1 0.534086 0.777485 0.622511
290 3 0.533256 0.782288 0.605154
291 4 0.538404 0.768013 0.624164
292 1 0.511417 0.77762 0.602149
293 3 0.509591 0.789392 0.590503
294 4 0.500374 0.773696 0.604027
295 1 0.505937 0.803126 0.604929
296 3 0.517064 0.812936 0.59426
297 4 0.501121 0.807185 0.615148
298 1 0.537657 0.806779 0.603126
299 3 0.545379 0.808944 0.58622
300 4 0.545379 0.803193 0.611466
301 1 0.538653 0.791895 0.579683
302 3 0.537242 0.798931 0.563829
303 4 0.534584 0.782085 0.579758
304 1 0.513659 0.803058 0.565106
305 3 0.51449 0.816859 0.55624
306 4 0.501287 0.801976 0.567285
307 1 0.524205 0.826872 0.571042
308 3 0.53583 0.834111 0.55917
309 4 0.527443 0.830729 0.581261
310 1 0.552437 0.82058 0.560222
311 3 0.553683 0.823828 0.542415
312 4 0.559661 0.812665 0.563153
313 1 0.535581 0.810838 0.53723
314 3 0.53118 0.820513 0.52303
315 4 0.528108 0.802584 0.539109
316 1 0.517977 0.832285 0.535352
317 3 0.525201 0.843515 0.524006
318 4 0.50984 0.835329 0.543467
319 1 0.543884 0.847101 0.536855
320 3 0.551856 0.852581 0.521452
321 4 0.551192 0.847169 0.546397
322 1 0.55634 0.834314 0.514389
323 3 0.551607 0.839524 0.49846
324 4 0.560326 0.824166 0.515516
325 1 0.529685 0.831879 0.498535
326 3 0.524537 0.842771 0.486588
327 4 0.518808 0.826805 0.501615
328 1 0.522959 0.857114 0.499361
329 3 0.527194 0.867871 0.487415
330 4 0.52105 0.862729 0.508453
331 1 0.549116 0.86415 0.485987
332 3 0.563315 0.860158 0.474491
333 4 0.557668 0.86848 0.4932
334 1 0.555675 0.842568 0.472011
335 3 0.568214 0.84683 0.458862
336 4 0.550029 0.833029 0.47389
337 1 0.541809 0.842298 0.451349
338 3 0.534834 0.854205 0.461943
339 4 0.539567 0.843245 0.440529
340 1 0.514739 0.845342 0.465324
341 3 0.511002 0.830255 0.463521
342 4 0.508511 0.851566 0.458938
343 1 0.495059 0.829376 0.480201
344 3 0.494312 0.814559 0.473289
345 4 0.485926 0.832082 0.487865
346 1 0.478618 0.818754 0.458712
347 3 0.488001 0.805494 0.452476
348 4 0.470398 0.823151 0.451349
349 1 0.505107 0.814627 0.442783
350 3 0.514988 0.801096 0.446315
351 4 0.512829 0.821934 0.436922
352 1 0.521548 0.806373 0.466301
353 3 0.522212 0.790474 0.469832
354 4 0.522129 0.811853 0.475994
355 1 0.500042 0.789054 0.47682
356 3 0.487586 0.777485 0.472011
357 4 0.491987 0.791895 0.485311
358 1 0.490326 0.78107 0.451424
359 3 0.484016 0.765916 0.450071
360 4 0.495059 0.784385 0.440454
361 1 0.502117 0.757797 0.458111
362 3 0.502948 0.759962 0.47652
363 4 0.513908 0.75455 0.455331
364 1 0.488666 0.745416 0.481178
365 3 0.489662 0.73148 0.491096
366 4 0.47538 0.746228 0.481854
367 1 0.501785 0.722143 0.477872
368 3 0.506352 0.713889 0.492975
369 4 0.506435 0.717949 0.46833
370 1 0.524454 0.724917 0.498911
371 3 0.526115 0.7283 0.516568
372 4 0.536245 0.728232 0.496431
373 1 0.506103 0.739598 0.515441
374 3 0.507183 0.738177 0.533474
375 4 0.495392 0.743928 0.511458
376 1 0.500789 0.720384 0.534901
377 3 0.511916 0.720114 0.550079
378 4 0.497551 0.710642 0.53152
379 1 0.532592 0.71964 0.540837
380 3 0.541559 0.726879 0.555414
381 4 0.542307 0.718355 0.533023
382 1 0.53118 0.743725 0.55346
383 3 0.530682 0.743725 0.571418
384 4 0.527526 0.752791 0.549403
385 1 0.510421 0.735607 0.573071
386 3 0.517479 0.728368 0.587723
387 4 0.498298 0.73263 0.571493
388 1 0.527942 0.714025 0.577203
389 3 0.541476 0.714904 0.589977
390 4 0.529934 0.70638 0.569089
391 1 0.555426 0.728029 0.579983
392 3 0.558582 0.732765 0.596889
393 4 0.560076 0.73378 0.571643
394 1 0.539982 0.74359 0.598392
395 3 0.541642 0.739125 0.615523
396 4 0.530848 0.75022 0.595988
397 1 0.529187 0.723226 0.613119
398 3 0.539151 0.717881 0.626644
399 4 0.520468 0.716054 0.610113
400 1 0.557419 0.712266 0.613795
401 3 0.569875 0.714769 0.628146
402 4 0.564477 0.710101 0.604628
403 1 0.568878 0.735133 0.625216
404 3 0.567467 0.733915 0.642798
405 4 0.567965 0.74386 0.61943
406 1 0.544632 0.735945 0.643024
407 3 0.546209 0.730803 0.659929
408 4 0.53201 0.736892 0.639642
409 1 0.547289 0.711589 0.653017
410 3 0.558914 0.710101 0.666767
411 4 0.546292 0.703335 0.645804
412 1 0.579341 0.714025 0.657675
413 3 0.58424 0.721061 0.673154
414 5 0.567882 0.657394 0.618821
415 1 0.579922 0.738313 0.66842
416 3 0.574525 0.743725 0.684574
417 4 0.579756 0.746905 0.661432
418 1 0.554015 0.735201 0.685175
419 3 0.556423 0.731885 0.702908
420 4 0.541809 0.731412 0.682471
421 1 0.569542 0.715446 0.698775
422 3 0.574026 0.717205 0.716357
423 4 0.574359 0.707395 0.693215
424 1 0.592045 0.729382 0.714103
425 3 0.589554 0.737298 0.729356
426 4 0.60176 0.733577 0.708393
427 1 0.57112 0.747784 0.722143
428 3 0.566636 0.751776 0.738748
429 4 0.562567 0.75252 0.715155
430 1 0.556838 0.736012 0.744759
431 3 0.566553 0.735674 0.760162
432 4 0.548617 0.7283 0.744008
433 1 0.585236 0.726811 0.753099
434 3 0.596114 0.731953 0.766399
435 4 0.593042 0.721873 0.745661
436 1 0.598522 0.749746 0.758434
437 3 0.600349 0.754888 0.775265
438 4 0.598356 0.758406 0.751747
439 1 0.577431 0.754347 0.779623
440 3 0.578926 0.747243 0.795251
441 5 0.582911 0.706313 0.737681
442 1 0.579009 0.729112 0.788113
443 3 0.590301 0.72397 0.801413
444 4 0.576517 0.721534 0.780975
445 1 0.610396 0.729585 0.791194
446 3 0.621689 0.737839 0.80269
447 4 0.617952 0.728503 0.782102
448 1 0.606078 0.751776 0.805846
449 3 0.606992 0.750896 0.823503
450 4 0.599269 0.760639 0.801262
451 1 0.585319 0.743387 0.825456
452 3 0.575189 0.732088 0.816816
453 4 0.576517 0.750896 0.827335
454 1 0.576019 0.71964 0.830791
455 3 0.55717 0.714431 0.827936
456 4 0.581832 0.712942 0.837554
457 1 0.547704 0.726203 0.841911
458 3 0.529436 0.732697 0.836652
459 4 0.547289 0.730194 0.853182
460 1 0.540397 0.738922 0.817868
461 3 0.521797 0.742913 0.812533
462 4 0.548534 0.740207 0.809227
463 1 0.513576 0.725526 0.812082
464 3 0.496637 0.719572 0.818318
465 4 0.514656 0.718016 0.803967
466 1 0.50519 0.718084 0.838681
467 3 0.487005 0.717475 0.846495
468 4 0.512331 0.719031 0.848298
469 1 0.483102 0.736012 0.842437
470 3 0.466495 0.73926 0.834473
471 4 0.485926 0.745619 0.845518
472 1 0.47264 0.732359 0.815839
473 3 0.465083 0.74359 0.804343
474 5 0.479117 0.674124 0.761076
475 1 0.482604 0.754956 0.806747
476 3 0.500955 0.752655 0.800135
477 4 0.485261 0.761789 0.815012
478 1 0.492651 0.752385 0.7809
479 3 0.494478 0.759894 0.764746
480 4 0.486341 0.744808 0.77519
481 1 0.50245 0.775793 0.773161
482 3 0.517064 0.783641 0.765347
483 4 0.497883 0.783641 0.780149
484 1 0.534169 0.772952 0.774213
485 3 0.548119 0.783844 0.77812
486 4 0.540812 0.763751 0.774363
487 1 0.538653 0.789256 0.796529
488 3 0.537906 0.800825 0.784432
489 4 0.546625 0.7854 0.805169
490 1 0.552188 0.813206 0.794725
491 3 0.560658 0.807794 0.779923
492 4 0.560824 0.818077 0.80254
493 1 0.556008 0.824437 0.768728
494 3 0.575355 0.82924 0.770907
495 4 0.549946 0.8333 0.764971
496 1 0.582662 0.821189 0.753325
497 3 0.590966 0.822137 0.736269
498 4 0.589388 0.813274 0.757908
499 1 0.573196 0.815642 0.726726
500 3 0.564311 0.823625 0.712751
501 4 0.567799 0.805899 0.725524
502 1 0.553101 0.835464 0.725449
503 3 0.556755 0.845342 0.711999
504 4 0.546292 0.839185 0.734315
505 1 0.573362 0.854746 0.722293
506 3 0.57386 0.858129 0.704335
507 4 0.582911 0.858467 0.729581
508 1 0.593125 0.847372 0.700579
509 3 0.586067 0.843921 0.684124
510 4 0.604501 0.843109 0.70148
511 1 0.571535 0.830255 0.689533
512 3 0.557834 0.837156 0.680141
513 5 0.579424 0.764366 0.642633
514 1 0.541809 0.836073 0.693441
515 3 0.534169 0.848386 0.683447
516 4 0.534501 0.834653 0.702532
517 1 0.547289 0.861985 0.692013
518 3 0.551192 0.866112 0.675182
519 4 0.54978 0.867939 0.701405
520 1 0.574192 0.868142 0.677361
521 3 0.575687 0.866383 0.660005
522 4 0.585734 0.870374 0.682471
523 1 0.575106 0.847033 0.659704
524 3 0.565391 0.83445 0.651514
525 4 0.58424 0.83993 0.661207
526 1 0.544217 0.842162 0.656173
527 3 0.535415 0.852987 0.645578
528 4 0.539899 0.833232 0.661658
529 1 0.525035 0.862662 0.661432
530 3 0.523458 0.873419 0.647757
531 4 0.520385 0.865503 0.671651
532 1 0.542639 0.880861 0.650913
533 3 0.541725 0.883634 0.633932
534 4 0.552022 0.886341 0.655797
535 1 0.552437 0.869156 0.626193
536 3 0.540065 0.870306 0.611842
537 4 0.560658 0.861038 0.625366
538 1 0.523042 0.861038 0.621609
539 3 0.511002 0.871051 0.611766
540 4 0.516732 0.855558 0.629499
541 1 0.512331 0.885596 0.625141
542 3 0.510172 0.894662 0.610564
543 4 0.514988 0.890603 0.635059
544 1 0.532841 0.895677 0.606657
545 3 0.526364 0.895542 0.588925
546 4 0.54513 0.897165 0.608986
547 1 0.528938 0.876937 0.587121
548 3 0.51615 0.879237 0.573822
549 4 0.533422 0.866721 0.587948
550 1 0.497052 0.876395 0.58652
551 3 0.488832 0.885867 0.573972
552 4 0.490575 0.874095 0.595913
553 1 0.492817 0.901969 0.584792
554 3 0.493399 0.908396 0.567962
555 4 0.495142 0.908125 0.594109
556 1 0.515818 0.905487 0.56428
557 3 0.509175 0.902036 0.547299
558 4 0.528689 0.904066 0.564956
559 1 0.505107 0.884446 0.55068
560 3 0.491406 0.888303 0.537907
561 4 0.503944 0.875178 0.555714
562 1 0.474882 0.892091 0.551506
563 3 0.469069 0.901766 0.538433
564 4 0.466661 0.8904 0.559922
565 1 0.482853 0.916379 0.544218
566 3 0.485593 0.920844 0.526336
567 4 0.489413 0.922942 0.550755
568 1 0.50054 0.906502 0.522128
569 3 0.491738 0.903592 0.506049
570 4 0.511085 0.901089 0.52318
571 1 0.475546 0.892024 0.514013
572 3 0.465 0.900413 0.502667
573 4 0.470149 0.88404 0.519949
574 1 0.457444 0.913199 0.515666
575 3 0.456365 0.922603 0.50124
576 4 0.453874 0.918815 0.525209
577 1 0.479449 0.925851 0.500789
578 3 0.476958 0.927204 0.483132
579 4 0.491406 0.928422 0.504095
580 1 0.477788 0.90799 0.479225
581 3 0.465166 0.910831 0.46555
582 4 0.48003 0.898315 0.482305
583 1 0.447065 0.911846 0.477121
584 3 0.437682 0.923145 0.467052
585 4 0.438429 0.908058 0.484785
586 1 0.4513 0.937081 0.47126
587 3 0.464336 0.936878 0.457134
588 4 0.458524 0.944388 0.477046
589 1 0.448393 0.942291 0.443234
590 3 0.460683 0.955077 0.443459
591 4 0.437017 0.943509 0.437749
592 1 0.474051 0.950342 0.42753
593 3 0.47621 0.963264 0.416109
594 4 0.482687 0.943509 0.423999
595 1 0.459603 0.956904 0.403261
596 3 0.442166 0.94865 0.404463
597 4 0.467159 0.953521 0.39447
598 1 0.431454 0.958731 0.390413
599 3 0.422735 0.945876 0.382147
600 4 0.426804 0.966308 0.383876
601 1 0.444657 0.939923 0.373131
602 3 0.446234 0.939652 0.355248
603 4 0.435938 0.931737 0.372304
604 1 0.4557 0.956634 0.352844
605 3 0.470813 0.945876 0.350214
606 4 0.458275 0.966579 0.354798
607 1 0.473719 0.949868 0.329927
608 3 0.487835 0.96049 0.335788
609 4 0.470979 0.949936 0.318356
610 1 0.505854 0.948583 0.330228
611 3 0.518143 0.960152 0.325795
612 4 0.513493 0.940261 0.3288
613 1 0.508843 0.962384 0.306184
614 3 0.525451 0.963264 0.296266
615 4 0.511417 0.972262 0.308363
616 1 0.528274 0.944794 0.292809
617 3 0.542473 0.950342 0.303028
618 5 0.519887 0.872672 0.269245
619 1 0.560242 0.944862 0.289053
620 3 0.558748 0.959949 0.284469
621 4 0.566221 0.938976 0.281389
622 1 0.579673 0.964887 0.294312
623 3 0.596778 0.970164 0.286798
624 4 0.583493 0.968067 0.304456
625 1 0.602093 0.953048 0.278834
626 3 0.592377 0.951492 0.262454
627 4 0.606576 0.944253 0.283643
628 1 0.610479 0.944794 0.253137
629 3 0.605912 0.929504 0.259298
630 4 0.622519 0.944523 0.248779
631 1 0.591464 0.925715 0.243745
632 3 0.601927 0.914891 0.233977
633 4 0.5815 0.927001 0.236081
634 1 0.596031 0.900345 0.2466
635 3 0.584489 0.886476 0.244722
636 4 0.604667 0.897842 0.255241
637 1 0.564809 0.895745 0.248704
638 3 0.554596 0.909343 0.24923
639 4 0.560242 0.890535 0.258021
640 1 0.539151 0.904269 0.235254
641 3 0.519223 0.902848 0.236757
642 4 0.538653 0.903525 0.223458
643 1 0.520053 0.891753 0.253888
644 3 0.520884 0.905419 0.263581
645 4 0.522959 0.884379 0.261928
646 1 0.4978 0.907313 0.264107
647 3 0.503031 0.921724 0.271996
648 4 0.497052 0.90454 0.275378
649 1 0.506352 0.931534 0.254264
650 3 0.500623 0.945065 0.261703
651 4 0.511583 0.934308 0.244196
652 1 0.480694 0.931195 0.24908
653 3 0.476542 0.921183 0.262755
654 4 0.471062 0.93742 0.244947
655 1 0.466827 0.90799 0.24938
656 3 0.48277 0.898924 0.243294
657 4 0.454704 0.908937 0.245323
658 1 0.471145 0.882687 0.242768
659 3 0.464004 0.883837 0.225562
660 4 0.464253 0.875245 0.248328
661 1 0.479366 0.872471 0.217823
662 3 0.461928 0.864488 0.217597
663 4 0.489662 0.867262 0.21632
664 1 0.461181 0.861308 0.196784
665 3 0.456365 0.845477 0.193478
666 4 0.461098 0.864826 0.185589
667 1 0.478286 0.840065 0.201743
668 3 0.482355 0.827346 0.1916
669 4 0.472474 0.832961 0.208355
670 1 0.488583 0.837832 0.17507
671 3 0.505605 0.830932 0.178826
672 4 0.492153 0.846019 0.168457
673 1 0.502533 0.816454 0.165001
674 3 0.514324 0.826805 0.155834
675 4 0.496305 0.809959 0.157112
676 1 0.533837 0.816318 0.160192
677 3 0.549531 0.826466 0.163348
678 4 0.534834 0.816995 0.148621
679 1 0.541144 0.83445 0.179427
680 3 0.539567 0.844801 0.165377
681 4 0.552769 0.832082 0.18356
682 1 0.536494 0.860158 0.177774
683 3 0.541476 0.866721 0.193628
684 4 0.523624 0.861647 0.178
685 1 0.552852 0.881334 0.185363
686 3 0.553849 0.888911 0.169359
687 4 0.563979 0.880116 0.191374
688 1 0.556755 0.905622 0.178826
689 3 0.57577 0.905216 0.183034
690 4 0.553683 0.912388 0.18619
691 1 0.584821 0.911034 0.165452
692 3 0.581084 0.916582 0.148847
693 4 0.59163 0.902307 0.162597
694 1 0.598107 0.929098 0.166504
695 3 0.586067 0.941411 0.16455
696 4 0.607988 0.934646 0.163724
697 1 0.579092 0.941208 0.184762
698 3 0.592959 0.952845 0.18649
699 4 0.576767 0.936878 0.195131
700 1 0.577929 0.966782 0.184161
701 3 0.57851 0.980854 0.192576
702 4 0.569376 0.970164 0.176197
703 1 0.575272 0.973277 0.212262
704 3 0.569044 0.988499 0.214667
705 4 0.586648 0.976456 0.215493
706 1 0.546375 0.985928 0.213915
707 3 0.543718 0.998512 0.225036
708 4 0.535913 0.980786 0.210384
709 1 0.542971 0.987078 0.242693
710 3 0.524122 0.98586 0.238485
711 5 0.545213 0.919471 0.238342
712 1 0.516483 0.99249 0.25742
713 3 0.502284 0.981327 0.253738
714 4 0.508594 0.999729 0.25201
715 1 0.511085 0.968405 0.267263
716 3 0.507349 0.971991 0.284319
717 4 0.520385 0.961369 0.268014
718 1 0.487005 0.962722 0.28477
719 3 0.47812 0.949327 0.292359
720 4 0.475048 0.967526 0.283342
721 1 0.49398 0.936946 0.286498
722 3 0.501453 0.938705 0.303103
723 5 0.493482 0.864116 0.267362
724 1 0.493233 0.920709 0.308588
725 3 0.509674 0.914079 0.300323
726 4 0.484265 0.91259 0.310091
727 1 0.520634 0.911305 0.318957
728 3 0.521382 0.897368 0.326997
729 4 0.530765 0.916853 0.322188
730 1 0.50685 0.901563 0.343076
731 3 0.490409 0.908464 0.341949
732 4 0.51258 0.903931 0.352844
733 1 0.47729 0.893241 0.343978
734 3 0.472474 0.888167 0.360508
735 4 0.473968 0.884446 0.338042
736 1 0.458939 0.903389 0.364791
737 3 0.443079 0.893647 0.362011
738 4 0.454372 0.91347 0.363964
739 1 0.437599 0.890062 0.38057
740 3 0.434111 0.896353 0.397325
741 4 0.441916 0.880996 0.38365
742 1 0.412356 0.901292 0.393643
743 3 0.400814 0.889182 0.400481
744 4 0.402807 0.906366 0.388309
745 1 0.404301 0.895203 0.421068
746 3 0.391431 0.906975 0.420092
747 4 0.410446 0.896015 0.431212
748 1 0.372997 0.895948 0.422196
749 3 0.358299 0.899466 0.433466
750 4 0.367433 0.888776 0.415508
751 1 0.367682 0.890738 0.449395
752 3 0.385452 0.891888 0.457209
753 4 0.365773 0.880387 0.452701
754 1 0.378228 0.905622 0.47111
755 3 0.377564 0.905893 0.488917
756 4 0.375571 0.915838 0.470208
757 1 0.362036 0.891009 0.489894
758 3 0.368513 0.889114 0.506875
759 4 0.353483 0.883364 0.486663
760 1 0.387113 0.880928 0.502141
761 3 0.397741 0.887626 0.515741
762 4 0.396496 0.875448 0.497257
763 1 0.400648 0.904472 0.507401
764 3 0.399402 0.910155 0.523781
765 4 0.401893 0.91144 0.498835
766 1 0.376567 0.911305 0.52318
767 3 0.377564 0.908328 0.540687
768 4 0.36461 0.91232 0.519874
769 1 0.377232 0.889047 0.537531
770 3 0.388358 0.889656 0.552258
771 4 0.375488 0.879981 0.532046
772 1 0.407789 0.889926 0.541814
773 3 0.415096 0.898654 0.554888
774 4 0.417172 0.888506 0.534225
775 1 0.409533 0.914823 0.547975
776 3 0.409449 0.916717 0.565632
777 5 0.407124 0.858525 0.51431
778 1 0.387777 0.911779 0.569389
779 3 0.394586 0.906096 0.585318
780 4 0.375073 0.912117 0.568187
781 1 0.401395 0.889994 0.578481
782 3 0.414432 0.891212 0.591705
783 4 0.402142 0.880996 0.572395
784 1 0.429876 0.901428 0.578556
785 3 0.434277 0.910223 0.593734
786 4 0.435855 0.904472 0.568863
787 1 0.416591 0.920912 0.592832
788 3 0.419165 0.919627 0.611165
789 4 0.406709 0.926121 0.587948
790 1 0.404218 0.904743 0.611541
791 3 0.413601 0.901292 0.626568
792 4 0.395167 0.898045 0.609437
793 1 0.430956 0.8927 0.617702
794 3 0.439841 0.898721 0.632429
795 4 0.438595 0.886611 0.61109
796 1 0.446899 0.9155 0.623939
797 3 0.444906 0.920912 0.640769
798 4 0.450137 0.922739 0.615974
799 1 0.422403 0.924633 0.639267
800 3 0.421822 0.922265 0.657149
801 4 0.411442 0.929369 0.636562
802 1 0.42232 0.904201 0.655797
803 3 0.435606 0.901698 0.669322
804 4 0.417255 0.895 0.653242
805 1 0.45404 0.903051 0.656623
806 3 0.462509 0.909343 0.6715
807 4 0.461928 0.903525 0.647381
808 1 0.454455 0.926933 0.66872
809 3 0.46035 0.92761 0.686378
810 4 0.447812 0.934916 0.664062
811 1 0.443162 0.920438 0.695018
812 3 0.453209 0.910426 0.705838
813 4 0.431039 0.920641 0.697423
814 1 0.455783 0.896218 0.692389
815 3 0.472058 0.892903 0.70133
816 4 0.453625 0.889859 0.682996
817 1 0.485178 0.906096 0.688707
818 3 0.49672 0.90914 0.703208
819 4 0.486756 0.911846 0.679615
820 1 0.482521 0.922536 0.710947
821 3 0.489911 0.916447 0.726275
822 4 0.473553 0.929842 0.71215
823 1 0.471643 0.902984 0.728379
824 3 0.485178 0.89588 0.738673
825 4 0.461264 0.897301 0.725524
826 1 0.497384 0.88925 0.721692
827 3 0.513659 0.892227 0.731911
828 4 0.500789 0.886611 0.710346
829 1 0.516483 0.909817 0.725524
830 3 0.52379 0.91002 0.74258
831 4 0.517396 0.918679 0.719663
832 1 0.504359 0.912658 0.751897
833 3 0.511999 0.906096 0.766248
834 4 0.491738 0.915161 0.753851
835 1 0.507017 0.887897 0.759411
836 3 0.524537 0.883702 0.765347
837 4 0.499294 0.88059 0.755128
838 1 0.534418 0.882011 0.746562
839 3 0.552354 0.886476 0.753024
840 4 0.534169 0.878628 0.735668
841 1 0.551524 0.90366 0.745661
842 3 0.559495 0.914214 0.756706
843 4 0.54978 0.908802 0.736118
844 1 0.541642 0.918138 0.767977
845 3 0.532841 0.909749 0.7809
846 4 0.531429 0.924362 0.766925
847 1 0.549282 0.910967 0.794801
848 3 0.543303 0.915026 0.81118
849 4 0.560658 0.909614 0.798332
850 1 0.531014 0.929301 0.805019
851 3 0.51615 0.924159 0.793899
852 4 0.533588 0.939314 0.803141
853 1 0.499543 0.926595 0.808776
854 3 0.497384 0.940261 0.798407
855 4 0.493067 0.927542 0.818619
856 1 0.476875 0.934105 0.790668
857 3 0.4606 0.925783 0.796679
858 4 0.478037 0.931263 0.779848
859 1 0.448891 0.943373 0.800586
860 3 0.436104 0.933293 0.792396
861 4 0.443992 0.952845 0.797505
862 1 0.427219 0.927136 0.810429
863 3 0.41493 0.919221 0.798933
864 4 0.423067 0.926392 0.822
865 1 0.402558 0.933902 0.79435
866 3 0.402558 0.927745 0.776843
867 4 0.395001 0.942223 0.796003
868 1 0.420742 0.937487 0.771132
869 3 0.421822 0.924971 0.759561
870 4 0.430458 0.94432 0.770156
871 1 0.436021 0.914958 0.773311
872 3 0.429295 0.900886 0.766098
873 4 0.444906 0.913335 0.780825
874 1 0.407872 0.902307 0.777369
875 3 0.398489 0.897436 0.762341
876 5 0.418085 0.832707 0.73568
877 1 0.396994 0.91462 0.754001
878 3 0.398904 0.907787 0.737245
879 4 0.393922 0.924701 0.7534
880 1 0.422818 0.908937 0.738748
881 3 0.424313 0.894594 0.730333
882 4 0.434028 0.912861 0.741453
883 1 0.426057 0.884108 0.747614
884 3 0.416508 0.873689 0.736795
885 4 0.42888 0.880387 0.758284
886 1 0.396745 0.87856 0.741904
887 3 0.391099 0.872539 0.726125
888 4 0.385784 0.882011 0.746562
889 1 0.39716 0.886611 0.714554
890 3 0.404384 0.877748 0.701555
891 4 0.395749 0.896759 0.711398
892 1 0.425641 0.87626 0.711624
893 3 0.425724 0.861917 0.704861
894 4 0.43544 0.879034 0.718536
895 1 0.415013 0.853663 0.721316
896 3 0.407457 0.843245 0.708769
897 4 0.410778 0.851702 0.73161
898 1 0.389438 0.855287 0.703734
899 3 0.391348 0.847439 0.688406
900 4 0.380636 0.863 0.70411
901 1 0.408536 0.859008 0.680742
902 3 0.412605 0.845545 0.670899
903 4 0.417006 0.866788 0.679916
904 1 0.421324 0.8356 0.688031
905 3 0.413435 0.82349 0.678263
906 5 0.417753 0.771252 0.649795
907 1 0.392842 0.823219 0.688181
908 3 0.384124 0.818551 0.672628
909 4 0.382878 0.824572 0.695695
910 1 0.381799 0.836209 0.665414
911 3 0.384539 0.828631 0.650011
912 4 0.38047 0.846627 0.665114
913 1 0.407374 0.830661 0.648959
914 3 0.404301 0.816657 0.640619
915 4 0.419746 0.833367 0.650913
916 1 0.401561 0.806102 0.656623
917 3 0.390434 0.796631 0.645879