LAMMPS protain data file

        8634  atoms
       11502  bonds
           0  angles
           0  dihedrals
           0  impropers

           5  atom types
           5  bond types
           0  angle types
           0  dihedral types
           0  improper types

-200.0	200.0	xlo xhi
-200.0	200.0	ylo yhi
-200.0	200.0	zlo zhi

Masses

           1	27.0
           2	14.0
           3	28.0
           4	60.0
           5	60.0

Atoms

           1	1	1	1	0.0	89.05	158.28	100.19
           2	1	1	3	0.0	86.91	158.09	101.13
           3	1	1	4	0.0	89.16001	158.41	98.63999
           4	1	2	1	0.0	86.31999	155.5	100.18
           5	1	2	3	0.0	87.06	154.39	102.18
           6	1	2	4	0.0	86.23	154.31	99.05
           7	1	3	1	0.0	84.44	154.26	103.2
           8	1	3	3	0.0	84.32	152.44	101.68001
           9	1	3	4	0.0	83.06	154.83	103.71001
          10	1	4	1	0.0	83.67	150.63	103.5
          11	1	4	3	0.0	82.6	149.73	101.57
          12	1	4	4	0.0	83.43	149.83	104.89
          13	1	5	1	0.0	80.18	150.78	102.06
          14	1	5	3	0.0	79.68	151.05	99.72
          15	1	5	4	0.0	78.98	151.45	102.79
          16	1	6	1	0.0	81.29	153.29	99.39
          17	1	6	3	0.0	82.12	152.38	97.34
          18	1	6	4	0.0	82.0	154.61	99.74
          19	1	7	1	0.0	84.17	150.92	98.57001
          20	1	7	3	0.0	83.88	149.42	96.64
          21	1	7	4	0.0	85.35	150.48	99.49
          22	1	8	1	0.0	81.71	148.02	97.87999
          23	1	8	3	0.0	80.73	148.05	95.64
          24	1	8	4	0.0	80.95	147.31	99.020004
          25	1	9	1	0.0	79.33	150.41	96.0
          26	1	9	3	0.0	79.61	150.4	93.619995
          27	1	9	4	0.0	78.6	151.57	96.65
          28	1	10	1	0.0	82.08	151.96	93.869995
          29	1	10	3	0.0	82.45	150.81	91.79
          30	1	10	4	0.0	83.37	152.68	94.380005
          31	1	11	1	0.0	83.43	148.57	92.98999
          32	1	11	3	0.0	82.62	147.2	91.18
          33	1	11	4	0.0	83.85	147.66	94.12001
          34	1	12	1	0.0	79.91	147.38	91.92
          35	1	12	3	0.0	79.31	147.82	89.61001
          36	1	12	4	0.0	78.64	147.11	92.87
          37	1	13	1	0.0	79.59	150.45	89.74
          38	1	13	3	0.0	80.39	150.01	87.48
          39	1	13	4	0.0	79.68	151.9	90.23
          40	1	14	1	0.0	83.1	149.58	88.25
          41	1	14	3	0.0	83.17	148.07	86.380005
          42	1	14	4	0.0	84.43	149.47	88.98999
          43	1	15	1	0.0	82.09	145.93	87.75
          44	1	15	3	0.0	81.19	145.42	85.55
          45	1	15	4	0.0	81.64	144.96	88.8
          46	1	16	1	0.0	78.99	147.3	85.81
          47	1	16	3	0.0	79.16	147.57	83.45
          48	1	16	4	0.0	77.74	147.98	86.35
          49	1	17	1	0.0	81.3	149.45	83.74
          50	1	17	3	0.0	81.98	148.53	81.68
          51	1	17	4	0.0	82.19	150.61	84.27
          52	1	18	1	0.0	83.22	146.24	82.76
          53	1	18	3	0.0	82.6	145.18	80.7
          54	1	18	4	0.0	84.06	145.27	83.68
          55	1	19	1	0.0	79.88	144.87	81.41
          56	1	19	3	0.0	79.26	145.43	79.09
          57	1	19	4	0.0	78.59	144.51	82.2
          58	1	20	1	0.0	79.4	148.04	79.43
          59	1	20	3	0.0	80.56	147.98	77.33
          60	1	20	4	0.0	79.14	149.5	79.97
          61	1	21	1	0.0	83.08	147.5	78.31
          62	1	21	3	0.0	83.28	146.27	76.26
          63	1	21	4	0.0	84.37	147.49	79.24
          64	1	22	1	0.0	82.42	143.83	77.17
          65	1	22	3	0.0	81.41	143.58	75.03
          66	1	22	4	0.0	82.32	142.51	77.99
          67	1	23	1	0.0	79.33	145.33	75.36
          68	1	23	3	0.0	79.52	145.98	73.14
          69	1	23	4	0.0	78.26	146.31	75.94
          70	1	24	1	0.0	81.77	147.68	73.63
          71	1	24	3	0.0	82.76	146.96	71.53
          72	1	24	5	0.0	80.92	139.52271431	68.59255073
          73	1	25	1	0.0	84.04	144.74	72.67
          74	1	25	3	0.0	83.48	143.69	70.59
          75	1	25	4	0.0	84.82	143.97	73.8
          76	1	26	1	0.0	80.98	142.78	71.36
          77	1	26	3	0.0	80.24	143.05	69.13
          78	1	26	4	0.0	79.78	142.18	72.19
          79	1	27	1	0.0	80.03	145.87	69.38
          80	1	27	3	0.0	80.82	146.58	67.24
          81	1	27	4	0.0	79.56	147.16	70.05
          82	1	28	1	0.0	83.54	145.96	67.83
          83	1	28	3	0.0	83.84	144.92	65.7
          84	1	28	4	0.0	84.87	146.31	68.5
          85	1	29	1	0.0	83.42	142.25	66.76
          86	1	29	3	0.0	82.23	140.86	65.14
          87	1	29	4	0.0	84.27	141.36	67.59
          88	1	30	1	0.0	79.67	141.62	65.97
          89	1	30	3	0.0	78.15	142.26	64.17
          90	1	30	4	0.0	78.53	141.41	66.96
          91	1	31	1	0.0	79.37	144.6	63.76
          92	1	31	3	0.0	81.25	143.96	62.329998
          93	1	31	4	0.0	79.54	146.06	64.4
          94	1	32	1	0.0	80.26	145.4	60.06
          95	1	32	3	0.0	81.02	147.63	60.69
          96	1	32	4	0.0	79.36	145.64	58.88
          97	1	33	1	0.0	83.48	147.35	59.65
          98	1	33	3	0.0	82.85	147.89	57.39
          99	1	33	4	0.0	84.9	146.71	59.730003
         100	1	34	1	0.0	83.87	150.47	57.4
         101	1	34	3	0.0	84.3	150.78	55.03
         102	1	34	4	0.0	84.12	151.86	58.08
         103	1	35	1	0.0	86.72	149.6	55.17
         104	1	35	3	0.0	86.54	147.21	55.5
         105	1	35	4	0.0	88.13	150.0	55.71
         106	1	36	1	0.0	87.079994	146.61	52.99
         107	1	36	3	0.0	87.649994	144.38	53.890003
         108	1	36	4	0.0	87.3	146.51	51.5
         109	1	37	1	0.0	90.33	145.01	54.48
         110	1	37	3	0.0	90.11	143.33	56.16
         111	1	37	4	0.0	91.7	145.67	54.51
         112	1	38	1	0.0	88.82	144.91	57.98
         113	1	38	3	0.0	87.270004	143.13	58.51
         114	1	38	4	0.0	88.53999	146.11	58.97
         115	1	39	1	0.0	85.41	143.58	56.620003
         116	1	39	3	0.0	84.94	141.18	56.429996
         117	1	39	4	0.0	84.35	144.42	55.84
         118	1	40	1	0.0	87.12	140.82	54.6
         119	1	40	3	0.0	88.18	138.77	55.37
         120	1	40	4	0.0	87.88	141.17	53.259995
         121	1	41	1	0.0	89.22	140.01	57.74
         122	1	41	3	0.0	91.27999	138.79	57.99
         123	1	41	4	0.0	88.409996	138.95	58.44
         124	1	42	1	0.0	92.7	140.14	56.07
         125	1	42	3	0.0	94.82001	140.87	56.88
         126	1	42	4	0.0	92.97	140.29	54.51
         127	1	43	1	0.0	93.44	142.89	58.63
         128	1	43	3	0.0	91.270004	142.5	59.410004
         129	1	43	4	0.0	93.65	144.42	58.34
         130	1	44	1	0.0	91.89	141.89	61.950005
         131	1	44	3	0.0	91.77	141.75	64.37
         132	1	44	4	0.0	91.39	140.41	61.77
         133	1	45	1	0.0	94.26	143.12	64.84
         134	1	45	3	0.0	93.38	143.92	66.9
         135	1	45	4	0.0	95.7	143.67	64.47
         136	1	46	1	0.0	91.93	145.97	65.89
         137	1	46	3	0.0	90.37001	145.36	67.62
         138	1	46	4	0.0	91.270004	147.13	65.06
         139	1	47	1	0.0	89.17999	143.36	66.3
         140	1	47	3	0.0	89.12	142.41	68.5
         141	1	47	4	0.0	88.33	142.51	65.25
         142	1	48	1	0.0	91.66	141.12	68.0
         143	1	48	3	0.0	91.99	141.03	70.35
         144	1	48	4	0.0	93.07	140.63	67.49
         145	1	49	1	0.0	92.43	143.79	70.66
         146	1	49	3	0.0	91.32	143.33	72.71
         147	1	49	4	0.0	92.94	145.25	70.59
         148	1	50	1	0.0	88.659996	143.71	71.77
         149	1	50	3	0.0	87.95	142.14	73.41
         150	1	50	4	0.0	87.55	144.16	70.83
         151	1	51	1	0.0	88.84	139.92	71.78
         152	1	51	3	0.0	89.17999	139.02	73.97
         153	1	51	4	0.0	89.29	139.08	70.66
         154	1	52	1	0.0	91.77	139.75	74.18
         155	1	52	3	0.0	91.19	140.05	76.53
         156	1	52	4	0.0	93.29	140.09	73.9
         157	1	53	1	0.0	90.26	142.57	76.37
         158	1	53	3	0.0	88.94	141.71	78.14
         159	1	53	4	0.0	89.93001	144.04	75.96
         160	1	54	1	0.0	86.94001	140.71	76.38
         161	1	54	3	0.0	86.66	139.26	78.18
         162	1	54	4	0.0	85.94999	140.56	75.21
         163	1	55	1	0.0	88.56	137.4	77.24
         164	1	55	3	0.0	89.02	136.77	79.47
         165	1	55	4	0.0	89.52	136.67	76.33
         166	1	56	1	0.0	90.67	139.01	80.07
         167	1	56	3	0.0	89.42999	139.24	82.11
         168	1	56	4	0.0	91.81	140.06	79.9
         169	1	57	1	0.0	87.45	140.83	81.16
         170	1	57	3	0.0	86.27	139.83	82.91
         171	1	57	5	0.0	88.55	133.01775674	76.37891438
         172	1	58	1	0.0	85.71	137.48	81.38
         173	1	58	3	0.0	85.72	136.35	83.43
         174	1	58	4	0.0	85.43	136.38	80.23
         175	1	59	1	0.0	88.53	136.37	83.73
         176	1	59	3	0.0	88.51	136.92	86.03
         177	1	59	4	0.0	89.96	136.18	83.36
         178	1	60	1	0.0	88.21	139.72	85.65
         179	1	60	3	0.0	86.700005	139.55	87.51
         180	1	60	4	0.0	88.26	141.15	85.06
         181	1	61	1	0.0	84.3	139.35	86.12001
         182	1	61	3	0.0	83.41	139.08	88.28
         183	1	61	4	0.0	83.24	138.96	85.12
         184	1	62	1	0.0	84.0	136.49	88.729996
         185	1	62	3	0.0	84.41	137.07	91.07
         186	1	62	4	0.0	84.44	135.06	88.44
         187	1	63	1	0.0	87.04	137.9	90.49
         188	1	63	3	0.0	86.81	139.49	92.23
         189	1	63	4	0.0	88.46	138.01	89.94
         190	1	64	1	0.0	85.33	141.37	90.439995
         191	1	64	3	0.0	83.93	141.65	92.37
         192	1	64	4	0.0	84.91	142.02	89.13
         193	1	65	1	0.0	82.11	139.61	91.94
         194	1	65	3	0.0	82.0	139.78	94.37001
         195	1	65	4	0.0	81.3	138.44	91.36
         196	1	66	1	0.0	84.29	138.27	94.86
         197	1	66	3	0.0	84.66	139.62	96.69
         198	1	66	4	0.0	85.47	137.3	94.75
         199	1	67	1	0.0	85.81	141.73	95.16
         200	1	67	3	0.0	84.75	142.9	97.0
         201	1	67	4	0.0	86.58	142.56	94.130005
         202	1	68	1	0.0	82.26	143.25	95.72
         203	1	68	3	0.0	81.24	143.08	98.03
         204	1	68	4	0.0	81.22	143.43	94.71
         205	1	69	1	0.0	81.11	140.26	97.83
         206	1	69	3	0.0	81.4	140.22	100.28
         207	1	69	4	0.0	81.34	138.84	97.28
         208	1	70	1	0.0	84.2	140.17	100.21999
         209	1	70	3	0.0	84.16	142.5	100.23
         210	1	70	4	0.0	85.56	139.62	99.78001
         211	1	71	1	0.0	84.69	142.9	102.86
         212	1	71	3	0.0	86.62	144.31	102.95
         213	1	71	5	0.0	84.47	134.90106417	96.82909915
         214	1	72	1	0.0	88.47001	142.21	103.43
         215	1	72	3	0.0	88.64	141.54	101.12
         216	1	72	4	0.0	88.81	141.04	104.45
         217	1	73	1	0.0	91.29	142.12	100.78
         218	1	73	3	0.0	91.64	139.72	101.29
         219	1	73	4	0.0	92.49	143.09	100.81
         220	1	74	1	0.0	92.72001	139.23	98.67
         221	1	74	3	0.0	91.62	137.1	98.700005
         222	1	74	4	0.0	93.92	139.59	97.73
         223	1	75	1	0.0	89.80001	137.52	96.81
         224	1	75	3	0.0	89.61001	135.17	96.96
         225	1	75	4	0.0	89.0	138.19	95.649994
         226	1	76	1	0.0	91.68	134.73	94.91
         227	1	76	3	0.0	93.53	134.9	96.3
         228	1	76	4	0.0	92.27	134.79	93.490005
         229	1	77	1	0.0	94.22	132.18	96.350006
         230	1	77	3	0.0	95.52	133.12	94.58
         231	1	77	4	0.0	94.00001	130.67	95.99
         232	1	78	1	0.0	97.72	133.86	96.37
         233	1	78	3	0.0	99.14001	134.59	94.69001
         234	1	78	4	0.0	98.6	133.87	97.62999
         235	1	79	1	0.0	99.20999	132.24	93.33
         236	1	79	3	0.0	98.74	132.86	91.12
         237	1	79	4	0.0	100.08	130.95	93.2
         238	1	80	1	0.0	96.02	132.76	91.25
         239	1	80	3	0.0	95.82	134.76	90.1
         240	1	80	4	0.0	94.72	131.93	91.399994
         241	1	81	1	0.0	95.77	136.48	92.350006
         242	1	81	3	0.0	96.88	137.98	90.93
         243	1	81	4	0.0	95.6	137.17	93.72
         244	1	82	1	0.0	99.49	136.96	91.31
         245	1	82	3	0.0	99.66	137.59	89.05999
         246	1	82	4	0.0	100.62	136.15	91.96
         247	1	83	1	0.0	98.700005	135.34	87.84
         248	1	83	3	0.0	97.810005	136.96	86.31
         249	1	83	4	0.0	98.37001	133.85	87.43
         250	1	84	1	0.0	95.399994	137.35	87.54
         251	1	84	3	0.0	95.5	139.47	86.35
         252	1	84	4	0.0	94.11	137.15	88.34
         253	1	85	1	0.0	97.04001	140.79	88.15001
         254	1	85	3	0.0	98.21	141.89	86.41
         255	1	85	4	0.0	97.42	141.55	89.42
         256	1	86	1	0.0	99.88	139.69	85.94999
         257	1	86	3	0.0	99.98	140.66	83.73
         258	1	86	4	0.0	100.64	138.35	86.1
         259	1	87	1	0.0	97.619995	139.48	82.99
         260	1	87	3	0.0	97.27	141.3	81.56
         261	1	87	4	0.0	96.350006	138.52	82.93
         262	1	88	1	0.0	96.4	143.15	83.56
         263	1	88	3	0.0	97.6	144.61	82.06
         264	1	88	4	0.0	95.78001	143.6	84.86
         265	1	89	1	0.0	100.02	144.47	83.45
         266	1	89	3	0.0	101.2	144.71	81.38
         267	1	89	4	0.0	101.02	144.44	84.59
         268	1	90	1	0.0	100.93	142.08	80.63
         269	1	90	3	0.0	100.89	143.34	78.51
         270	1	90	4	0.0	100.81	140.58	80.58
         271	1	91	1	0.0	98.11	143.44	78.44
         272	1	91	3	0.0	98.50001	145.46	77.18
         273	1	91	4	0.0	96.659996	143.05	78.57
         274	1	92	1	0.0	98.88	147.14	79.42
         275	1	92	3	0.0	100.37	148.15	77.86
         276	1	92	4	0.0	98.93	147.79	80.83
         277	1	93	1	0.0	102.509995	146.43	78.37
         278	1	93	3	0.0	103.24	146.89	76.19
         279	1	93	4	0.0	103.54	145.51	79.04
         280	1	94	1	0.0	101.560005	144.77	75.05
         281	1	94	3	0.0	101.17	146.35	73.2
         282	1	94	4	0.0	100.87	143.44	74.9
         283	1	95	1	0.0	99.2	147.75	74.4
         284	1	95	3	0.0	100.21	149.75	73.23
         285	1	95	4	0.0	97.91	148.09	75.22
         286	1	96	1	0.0	101.94	150.38	75.52
         287	1	96	3	0.0	103.590004	151.14	73.8
         288	1	96	4	0.0	102.3	150.43	77.01
         289	1	97	1	0.0	104.5	148.66	73.27
         290	1	97	3	0.0	104.71	148.63	70.9
         291	1	97	4	0.0	105.23001	147.37	73.56
         292	1	98	1	0.0	101.94999	148.39	70.31
         293	1	98	3	0.0	101.79	150.22	68.76
         294	1	98	4	0.0	100.63	147.54	70.29
         295	1	99	1	0.0	101.44	152.12	70.68
         296	1	99	3	0.0	103.01001	153.32	69.29
         297	1	99	4	0.0	100.979996	152.94	71.88
         298	1	100	1	0.0	105.17999	152.31	70.41
         299	1	100	3	0.0	105.9	152.65	68.16
         300	1	100	4	0.0	106.26	151.8	71.41
         301	1	101	1	0.0	105.34	149.98	67.39
         302	1	101	3	0.0	105.42	150.81	65.09
         303	1	101	4	0.0	104.9	148.52	67.39
         304	1	102	1	0.0	102.82001	151.82	64.97
         305	1	102	3	0.0	103.83001	153.49	63.77
         306	1	102	4	0.0	101.26	151.97	65.11
         307	1	103	1	0.0	104.24	155.27	65.95
         308	1	103	3	0.0	105.98	156.14	64.5
         309	1	103	4	0.0	104.28999	155.79	67.34
         310	1	104	1	0.0	107.8	154.17	65.11
         311	1	104	3	0.0	108.57	154.04	62.86
         312	1	104	4	0.0	108.729996	153.31	66.04
         313	1	105	1	0.0	106.57001	152.34	61.94
         314	1	105	3	0.0	106.509995	153.58	59.87
         315	1	105	4	0.0	105.49999	151.16	62.01
         316	1	106	1	0.0	104.77	155.64	61.02
         317	1	106	3	0.0	106.01	157.06	59.6
         318	1	106	4	0.0	103.66	156.09	61.9
         319	1	107	1	0.0	108.09999	157.47	61.570004
         320	1	107	3	0.0	109.51	157.89	59.699997
         321	1	107	4	0.0	108.729996	157.64	62.97
         322	1	108	1	0.0	110.37001	155.15	59.34
         323	1	108	3	0.0	110.509995	155.79	57.02
         324	1	108	4	0.0	110.700005	153.72	59.639996
         325	1	109	1	0.0	107.77	155.85	56.56
         326	1	109	3	0.0	107.42	157.53	54.900005
         327	1	109	4	0.0	106.3	155.25	56.64
         328	1	110	1	0.0	108.03001	159.66	56.360004
         329	1	110	3	0.0	109.49999	161.38	55.639996
         330	1	110	4	0.0	107.37	160.58	57.37
         331	1	111	1	0.0	111.83001	160.0	56.32
         332	1	111	3	0.0	111.84	159.71	53.86
         333	1	111	4	0.0	112.85999	158.98	56.91
         334	1	112	1	0.0	113.45	162.17	53.56
         335	1	112	3	0.0	112.69	161.44	51.4
         336	1	112	4	0.0	114.63	161.29	53.17
         337	1	113	1	0.0	110.68	163.36	51.01
         338	1	113	3	0.0	108.8	162.11	50.109997
         339	1	113	4	0.0	110.18	164.77	51.190002
         340	1	114	1	0.0	108.350006	160.56	52.51
         341	1	114	3	0.0	109.03	159.09	50.71
         342	1	114	4	0.0	106.95	160.8	51.93
         343	1	115	1	0.0	109.71	156.93	52.31
         344	1	115	3	0.0	107.54	155.86	52.32
         345	1	115	4	0.0	110.50001	156.28	53.510002
         346	1	116	1	0.0	108.02	154.37	50.06
         347	1	116	3	0.0	109.869995	153.45	48.89
         348	1	116	4	0.0	107.11	154.95	48.85
         349	1	117	1	0.0	108.89	150.75	49.159996
         350	1	117	3	0.0	106.98	149.78	48.03
         351	1	117	4	0.0	109.16001	149.82	50.369995
         352	1	118	1	0.0	108.48	149.0	45.8
         353	1	118	3	0.0	107.01001	147.04	45.6
         354	1	118	4	0.0	109.549995	148.87	44.73
         355	1	119	1	0.0	108.28	145.67	47.66
         356	1	119	3	0.0	108.21	146.87	49.74
         357	1	119	4	0.0	109.58	144.82	47.61
         358	1	120	1	0.0	105.79	145.71	50.580006
         359	1	120	3	0.0	104.27	143.83	51.18
         360	1	120	4	0.0	104.44	146.45	50.26
         361	1	121	1	0.0	106.26	142.63	52.7
         362	1	121	3	0.0	105.45	143.25	54.840004
         363	1	121	4	0.0	107.67	142.29	53.29
         364	1	122	1	0.0	103.23	141.63	54.76
         365	1	122	3	0.0	103.45	141.11	57.02
         366	1	122	4	0.0	101.91	141.05	54.360004
         367	1	123	1	0.0	105.65	139.25	56.649998
         368	1	123	3	0.0	106.33	139.66	58.86
         369	1	123	4	0.0	106.57001	138.24	55.96
         370	1	124	1	0.0	107.72	142.05	58.17
         371	1	124	3	0.0	106.98	142.98	60.26
         372	1	124	4	0.0	108.659996	142.99	57.419994
         373	1	125	1	0.0	104.4	143.55	59.419994
         374	1	125	3	0.0	103.79	142.85	61.570004
         375	1	125	4	0.0	103.26001	144.09	58.589996
         376	1	126	1	0.0	103.51	140.18	60.98
         377	1	126	3	0.0	104.3	139.62	63.14
         378	1	126	4	0.0	103.13	138.87	60.109997
         379	1	127	1	0.0	106.95	140.16	62.57
         380	1	127	3	0.0	107.3	141.06	64.68
         381	1	127	4	0.0	108.32	140.13	61.78
         382	1	128	1	0.0	106.25001	143.61	64.18
         383	1	128	3	0.0	105.39	143.41	66.36
         384	1	128	4	0.0	105.67	144.86	63.539997
         385	1	129	1	0.0	103.03	142.04	65.7
         386	1	129	3	0.0	103.14001	141.18	67.91
         387	1	129	4	0.0	101.91	141.51	64.79
         388	1	130	1	0.0	105.03	139.0	67.05
         389	1	130	3	0.0	106.130005	139.25	69.15
         390	1	130	4	0.0	105.62999	138.03	65.98
         391	1	131	1	0.0	107.90001	141.26	68.22
         392	1	131	3	0.0	107.81	141.69	70.56
         393	1	131	4	0.0	108.729996	142.34	67.41
         394	1	132	1	0.0	105.42999	143.24	70.47
         395	1	132	3	0.0	105.22	142.54	72.72
         396	1	132	4	0.0	104.36	144.26	70.03
         397	1	133	1	0.0	104.09	140.06	72.28
         398	1	133	3	0.0	105.48001	139.32	74.16
         399	1	133	4	0.0	103.23	139.02	71.5
         400	1	134	1	0.0	107.63	138.52	72.6
         401	1	134	3	0.0	109.10999	139.11	74.37
         402	1	134	4	0.0	108.36	137.98	71.41
         403	1	135	1	0.0	109.15	141.86	73.94
         404	1	135	3	0.0	109.05999	141.96	76.25
         405	1	135	4	0.0	109.07	143.24	73.28
         406	1	136	1	0.0	106.29	142.12	76.45
         407	1	136	3	0.0	106.54	141.24	78.69
         408	1	136	4	0.0	104.8	142.26	75.97
         409	1	137	1	0.0	106.66	138.57	77.85
         410	1	137	3	0.0	108.25	138.48	79.59
         411	1	137	4	0.0	106.3	137.24	77.14
         412	1	138	1	0.0	110.439995	139.04	77.84
         413	1	138	3	0.0	111.66	139.96	79.68
         414	1	138	5	0.0	109.05	129.75835444	72.54889582
         415	1	139	1	0.0	110.50001	142.41	79.55
         416	1	139	3	0.0	110.06999	143.0	81.87
         417	1	139	4	0.0	110.41	143.66	78.77
         418	1	140	1	0.0	107.590004	141.53	82.2
         419	1	140	3	0.0	107.92	140.12	84.21
         420	1	140	4	0.0	106.08	141.42	81.89
         421	1	141	1	0.0	109.48001	138.28	82.88
         422	1	141	3	0.0	110.31999	137.58	84.94
         423	1	141	4	0.0	110.26	137.51	81.7
         424	1	142	1	0.0	112.0	139.5	85.59
         425	1	142	3	0.0	111.52999	139.66	87.96999
         426	1	142	4	0.0	113.02	140.64	85.36
         427	1	143	1	0.0	109.13	140.94	87.76
         428	1	143	3	0.0	108.659996	140.13	89.97
         429	1	143	4	0.0	108.09999	141.98	87.36
         430	1	144	1	0.0	107.71001	137.72	89.36001
         431	1	144	3	0.0	108.91001	136.55	91.03
         432	1	144	4	0.0	106.81	136.71	88.53999
         433	1	145	1	0.0	111.25	136.08	89.44
         434	1	145	3	0.0	112.37	136.25	91.590004
         435	1	145	4	0.0	112.09999	135.92	88.23
         436	1	146	1	0.0	112.48	139.09	91.45
         437	1	146	3	0.0	112.47001	139.07	93.80001
         438	1	146	4	0.0	112.49	140.56	90.83999
         439	1	147	1	0.0	109.54	138.6	93.84
         440	1	147	3	0.0	109.80001	137.29	95.8
         441	1	147	5	0.0	110.42	130.37205335	88.44322521
         442	1	148	1	0.0	110.71	135.09	94.48
         443	1	148	3	0.0	112.38	134.46	96.16
         444	1	148	4	0.0	110.78	133.92	93.48001
         445	1	149	1	0.0	114.4	136.2	94.98
         446	1	149	3	0.0	115.05	136.7	97.32
         447	1	149	4	0.0	115.27999	136.88	93.869995
         448	1	150	1	0.0	113.42999	138.9	97.52
         449	1	150	3	0.0	111.2	139.68	97.1
         450	1	150	4	0.0	114.23	140.22	97.38
         451	1	151	1	0.0	110.23	138.59	99.56
         452	1	151	3	0.0	108.5	140.02	100.409996
         453	1	151	4	0.0	110.23	137.51	100.62
         454	1	152	1	0.0	110.24	142.34	100.32
         455	1	152	3	0.0	109.41	144.2	99.05
         456	1	152	4	0.0	111.45	143.11	100.95
         457	1	153	1	0.0	109.93001	143.09	96.5
         458	1	153	3	0.0	108.48	141.28	96.05
         459	1	153	4	0.0	111.18	142.86	95.55
         460	1	154	1	0.0	106.93	142.95	94.19999
         461	1	154	3	0.0	104.57	143.04	94.83999
         462	1	154	4	0.0	107.47	142.01	93.1
         463	1	155	1	0.0	104.47001	140.43	95.99
         464	1	155	3	0.0	103.88	139.56	98.06
         465	1	155	4	0.0	104.47001	138.99	95.5
         466	1	156	1	0.0	105.299995	141.7	99.45
         467	1	156	3	0.0	103.05	142.44	99.84
         468	1	156	4	0.0	106.3	142.89	99.57
         469	1	157	1	0.0	102.93	141.11	102.38999
         470	1	157	3	0.0	100.5	140.95	102.37001
         471	1	157	4	0.0	102.8	142.49	103.14001
         472	1	158	1	0.0	100.5	139.15	100.26
         473	1	158	3	0.0	98.82001	139.76	98.75
         474	1	158	5	0.0	101.67	129.22574065	93.82396012
         475	1	159	1	0.0	99.92	142.21	98.03
         476	1	159	3	0.0	100.57	141.08	95.98
         477	1	159	4	0.0	100.8	143.53	97.810005
         478	1	160	1	0.0	98.09	141.61	94.69001
         479	1	160	3	0.0	97.03	142.98	92.98999
         480	1	160	4	0.0	96.87	140.63	94.73
         481	1	161	1	0.0	97.37	145.43	94.26
         482	1	161	3	0.0	98.05001	147.39	93.17
         483	1	161	4	0.0	96.920006	146.33	95.39
         484	1	162	1	0.0	100.5	146.12	92.24
         485	1	162	3	0.0	101.89	148.02	92.659996
         486	1	162	4	0.0	100.89	144.85	91.43
         487	1	163	1	0.0	103.83001	146.64	93.98
         488	1	163	3	0.0	102.95999	148.38	95.35
         489	1	163	4	0.0	104.82	146.71	92.729996
         490	1	164	1	0.0	105.25	149.38	96.24
         491	1	164	3	0.0	105.80001	150.76	94.38999
         492	1	164	4	0.0	106.57001	149.4	97.03
         493	1	165	1	0.0	104.28	152.91	95.37
         494	1	165	3	0.0	105.240005	154.22	93.619995
         495	1	165	4	0.0	103.42	153.7	96.409996
         496	1	166	1	0.0	107.76	154.56	94.81
         497	1	166	3	0.0	108.51	154.42	92.52
         498	1	166	4	0.0	108.9	154.64	95.89
         499	1	167	1	0.0	108.96	151.52	92.72001
         500	1	167	3	0.0	108.55	151.5	90.31
         501	1	167	4	0.0	109.10999	150.11	93.4
         502	1	168	1	0.0	105.72	151.61	90.58
         503	1	168	3	0.0	105.72	152.94	88.65
         504	1	168	4	0.0	104.26	151.59	91.18
         505	1	169	1	0.0	106.06	155.43	90.09
         506	1	169	3	0.0	106.93	156.35	88.15001
         507	1	169	4	0.0	106.15	156.47	91.24
         508	1	170	1	0.0	109.51	155.04	88.37
         509	1	170	3	0.0	109.64	154.96	85.89
         510	1	170	4	0.0	110.72	154.2	88.96
         511	1	171	1	0.0	107.66	153.04	85.67
         512	1	171	3	0.0	106.450005	154.32	84.05
         513	1	171	5	0.0	108.2	142.282088	79.290696
         514	1	172	1	0.0	104.68	155.42	85.68
         515	1	172	3	0.0	104.7	157.19	84.06
         516	1	172	4	0.0	103.72	155.88	86.759995
         517	1	173	1	0.0	107.18	158.31	84.95
         518	1	173	3	0.0	107.55	158.75	82.58
         519	1	173	4	0.0	108.38	158.89	85.84
         520	1	174	1	0.0	108.38	156.41	81.88
         521	1	174	3	0.0	107.15	156.69	79.79
         522	1	174	4	0.0	109.23001	155.2	81.75
         523	1	175	1	0.0	104.79001	155.55	80.57
         524	1	175	3	0.0	103.64	157.06	79.18
         525	1	175	4	0.0	103.66	154.68	81.05
         526	1	176	1	0.0	104.08	159.25	81.01
         527	1	176	3	0.0	104.57	160.48	79.04
         528	1	176	4	0.0	104.09	160.05	82.34
         529	1	177	1	0.0	107.41	160.27	79.34
         530	1	177	3	0.0	107.22	160.76	77.05
         531	1	177	4	0.0	108.88	159.93	79.88
         532	1	178	1	0.0	107.48	158.14	76.25
         533	1	178	3	0.0	106.08	158.37	74.34
         534	1	178	4	0.0	108.729996	157.26	75.98
         535	1	179	1	0.0	104.13	156.41	75.28
         536	1	179	3	0.0	102.61	157.94	74.31
         537	1	179	4	0.0	103.61	155.18	76.15
         538	1	180	1	0.0	101.810005	159.03	76.76
         539	1	180	3	0.0	101.42999	161.41	76.84
         540	1	180	4	0.0	101.01	158.77	78.01
         541	1	181	1	0.0	103.74	162.02	75.55
         542	1	181	3	0.0	103.72	161.91	73.16
         543	1	181	4	0.0	104.49	162.98	76.47
         544	1	182	1	0.0	106.59	161.78	72.95
         545	1	182	3	0.0	106.27	161.25	70.59
         546	1	182	4	0.0	108.09999	161.64	73.22
         547	1	183	1	0.0	105.17	158.85	70.93
         548	1	183	3	0.0	103.91	159.32	68.96
         549	1	183	4	0.0	104.95	157.43	71.5
         550	1	184	1	0.0	101.64	160.18	70.27
         551	1	184	3	0.0	101.52	161.49	68.36
         552	1	184	4	0.0	100.350006	160.24	71.17
         553	1	185	1	0.0	102.88	163.72	69.34
         554	1	185	3	0.0	103.74	164.2	67.14
         555	1	185	4	0.0	103.39	164.98	70.18
         556	1	186	1	0.0	105.44	161.97	66.98
         557	1	186	3	0.0	104.729996	161.65	64.64
         558	1	186	4	0.0	106.42	160.83	67.33
         559	1	187	1	0.0	102.450005	160.15	65.37
         560	1	187	3	0.0	101.35	161.28	63.61
         561	1	187	4	0.0	101.73	159.09	66.22
         562	1	188	1	0.0	100.47001	163.44	65.14
         563	1	188	3	0.0	100.600006	164.68	63.11
         564	1	188	4	0.0	99.90001	164.38	66.22
         565	1	189	1	0.0	103.51	165.16	63.52
         566	1	189	3	0.0	103.89	164.82	61.14
         567	1	189	4	0.0	104.84	165.47	64.3
         568	1	190	1	0.0	103.96	162.1	61.350002
         569	1	190	3	0.0	103.11	162.26	59.11
         570	1	190	4	0.0	104.15001	160.68	61.69
         571	1	191	1	0.0	100.44	162.44	59.99
         572	1	191	3	0.0	100.32	163.95	58.14
         573	1	191	4	0.0	99.12	162.33	60.77
         574	1	192	1	0.0	100.979996	166.31	59.43
         575	1	192	3	0.0	102.06999	167.48	57.670002
         576	1	192	4	0.0	101.22	167.42	60.5
         577	1	193	1	0.0	104.34	165.72	57.44
         578	1	193	3	0.0	104.57	165.53	55.01
         579	1	193	4	0.0	105.54	164.9	58.04
         580	1	194	1	0.0	102.58	163.73	54.67
         581	1	194	3	0.0	101.82	165.66	53.46
         582	1	194	4	0.0	101.34	162.86	54.91
         583	1	195	1	0.0	102.74	164.99	51.07
         584	1	195	3	0.0	102.88	163.29	49.27
         585	1	195	4	0.0	104.11	165.66	50.97
         586	1	196	1	0.0	100.920006	164.48	47.61
         587	1	196	3	0.0	101.17	166.65	46.64
         588	1	196	4	0.0	99.340004	164.47	47.730003
         589	1	197	1	0.0	101.9	165.5	43.98
         590	1	197	3	0.0	103.75	166.82	43.09
         591	1	197	4	0.0	100.8	166.44	43.419994
         592	1	198	1	0.0	105.549995	165.75	44.76
         593	1	198	3	0.0	105.86	163.71	45.92
         594	1	198	4	0.0	105.76	166.97	45.68
         595	1	199	1	0.0	108.53	163.36	45.14
         596	1	199	3	0.0	110.16	164.75	44.14
         597	1	199	4	0.0	108.25	162.08	44.34
         598	1	200	1	0.0	112.26	163.18	44.999996
         599	1	200	3	0.0	113.89	162.17	43.470005
         600	1	200	4	0.0	113.14	163.18	46.300003
         601	1	201	1	0.0	112.28999	159.8	43.29
         602	1	201	3	0.0	111.05	160.53	41.37
         603	1	201	4	0.0	111.45	158.65	43.87
         604	1	202	1	0.0	112.72001	159.12	39.44
         605	1	202	3	0.0	110.75	157.75	39.49
         606	1	202	4	0.0	113.99999	158.55	38.85
         607	1	203	1	0.0	109.49999	159.11	37.43
         608	1	203	3	0.0	110.36	159.92	35.3
         609	1	203	4	0.0	108.62	160.27	37.98
         610	1	204	1	0.0	108.76	158.48	33.76
         611	1	204	3	0.0	107.26001	160.38	33.79
         612	1	204	4	0.0	107.95	157.31	33.23
         613	1	205	1	0.0	108.409996	161.7	31.709997
         614	1	205	3	0.0	108.81	162.74	33.93
         615	1	205	4	0.0	106.93	161.76	31.230001
         616	1	206	1	0.0	109.53	165.25	32.79
         617	1	206	3	0.0	107.649994	165.94	33.91
         618	1	206	5	0.0	109.12	155.57037744	30.63767276
         619	1	207	1	0.0	109.23001	166.51	36.37
         620	1	207	3	0.0	107.95	164.64	37.07
         621	1	207	4	0.0	108.12	167.59	36.55
         622	1	208	1	0.0	109.549995	163.98	39.28
         623	1	208	3	0.0	107.52	163.1	40.04
         624	1	208	4	0.0	110.79	163.74	40.12
         625	1	209	1	0.0	106.56	165.59	40.91
         626	1	209	3	0.0	105.65	165.78	38.64
         627	1	209	4	0.0	106.509995	167.06	41.26
         628	1	210	1	0.0	103.46001	164.11	39.18
         629	1	210	3	0.0	101.810005	164.28	40.93
         630	1	210	4	0.0	103.66	162.61	38.82
         631	1	211	1	0.0	99.8	165.08	39.13
         632	1	211	3	0.0	99.340004	162.61	38.93
         633	1	211	4	0.0	99.03	165.69	37.94
         634	1	212	1	0.0	97.30999	162.59	40.72
         635	1	212	3	0.0	94.81	162.3	40.44
         636	1	212	4	0.0	97.71	162.1	42.19
         637	1	213	1	0.0	94.17	164.77	41.13
         638	1	213	3	0.0	92.5	165.88	39.92
         639	1	213	4	0.0	94.14	165.88	42.29
         640	1	214	1	0.0	94.19999	166.04	37.66
         641	1	214	3	0.0	95.89	164.49	36.99
         642	1	214	4	0.0	94.67	167.5	37.87
         643	1	215	1	0.0	94.87	164.24	34.36
         644	1	215	3	0.0	96.5	165.89	33.6
         645	1	215	4	0.0	93.810005	164.08	33.24
         646	1	216	1	0.0	98.25001	163.97	32.45
         647	1	216	3	0.0	98.93	164.25	30.180002
         648	1	216	4	0.0	99.270004	162.92	32.78
         649	1	217	1	0.0	96.52	164.7	29.11
         650	1	217	3	0.0	94.19999	164.7	28.68
         651	1	217	4	0.0	96.68	163.57	28.06
         652	1	218	1	0.0	95.84999	167.3	30.36