ITEM: TIMESTEP
0
ITEM: NUMBER OF ATOMS
8634
ITEM: BOX BOUNDS ss ss ss
45.4 191.27
32.32 173.61
-6.25 122.26
ITEM: ATOMS id type xs ys zs
1 1 0.299239 0.8915 0.828262
2 3 0.284568 0.890155 0.835577
3 4 0.299993 0.89242 0.816201
4 1 0.280524 0.871824 0.828185
5 3 0.285597 0.863968 0.843748
6 4 0.279907 0.863402 0.819391
7 1 0.267636 0.863048 0.851685
8 3 0.266813 0.850166 0.839857
9 4 0.258175 0.867082 0.855653
10 1 0.262357 0.837356 0.854019
11 3 0.255022 0.830986 0.839001
12 4 0.260712 0.831694 0.864835
13 1 0.238431 0.838417 0.842814
14 3 0.235004 0.840328 0.824605
15 4 0.230205 0.843159 0.848494
16 1 0.246041 0.856182 0.822037
17 3 0.251731 0.849742 0.806085
18 4 0.250908 0.865525 0.824761
19 1 0.265785 0.839408 0.815656
20 3 0.263797 0.828792 0.800638
21 4 0.273874 0.836294 0.822815
22 1 0.24892 0.818883 0.810287
23 3 0.242202 0.819095 0.792857
24 4 0.24371 0.813858 0.819158
25 1 0.232604 0.835799 0.795658
26 3 0.234524 0.835728 0.777138
27 4 0.2276 0.844009 0.800716
28 1 0.251457 0.846769 0.779083
29 3 0.253993 0.83863 0.762898
30 4 0.2603 0.851865 0.783052
31 1 0.260712 0.822776 0.772236
32 3 0.255159 0.813079 0.758151
33 4 0.263591 0.816335 0.781029
34 1 0.236581 0.814353 0.763909
35 3 0.232467 0.817468 0.745934
36 4 0.227874 0.812442 0.771302
37 1 0.234387 0.836082 0.746946
38 3 0.239871 0.832968 0.72936
39 4 0.235004 0.846344 0.750759
40 1 0.258449 0.829924 0.735351
41 3 0.258929 0.819237 0.7208
42 4 0.267567 0.829146 0.74111
43 1 0.251525 0.804091 0.731461
44 3 0.245355 0.800481 0.714341
45 4 0.24844 0.797226 0.739631
46 1 0.230274 0.813787 0.716364
47 3 0.231439 0.815698 0.698
48 4 0.221704 0.8186 0.720566
49 1 0.24611 0.829004 0.700257
50 3 0.250771 0.822493 0.684227
51 4 0.252211 0.837214 0.704381
52 1 0.259272 0.806285 0.692631
53 3 0.255022 0.798783 0.676601
54 4 0.265031 0.79942 0.69979
55 1 0.236375 0.796589 0.682126
56 3 0.232124 0.800552 0.664073
57 4 0.227531 0.794041 0.688273
58 1 0.233084 0.819025 0.666719
59 3 0.241037 0.8186 0.650377
60 4 0.231302 0.829358 0.670921
61 1 0.258312 0.815203 0.658003
62 3 0.259683 0.806497 0.642051
63 4 0.267156 0.815132 0.66524
64 1 0.253788 0.789228 0.649132
65 3 0.246864 0.787458 0.63248
66 4 0.253102 0.779885 0.655513
67 1 0.232604 0.799844 0.635048
68 3 0.233907 0.804445 0.617773
69 4 0.225269 0.80678 0.639561
70 1 0.249332 0.816477 0.621586
71 3 0.256118 0.811381 0.605245
72 5 0.243504 0.758742 0.582387
73 1 0.264893 0.795668 0.614116
74 3 0.261054 0.788237 0.59793
75 4 0.270241 0.790219 0.622909
76 1 0.243916 0.781796 0.603922
77 3 0.238843 0.783707 0.586569
78 4 0.235689 0.77755 0.610381
79 1 0.237403 0.803666 0.588515
80 3 0.242819 0.808691 0.571862
81 4 0.234181 0.812796 0.593728
82 1 0.261466 0.804303 0.576453
83 3 0.263522 0.796942 0.559879
84 4 0.270583 0.80678 0.581667
85 1 0.260643 0.778045 0.568127
86 3 0.252485 0.768207 0.555521
87 4 0.26647 0.771746 0.574586
88 1 0.234935 0.773586 0.56198
89 3 0.224515 0.778116 0.547973
90 4 0.22712 0.7721 0.569683
91 1 0.232879 0.794678 0.544783
92 3 0.245767 0.790148 0.533655
93 4 0.234044 0.805011 0.549763
94 1 0.23898 0.80034 0.515991
95 3 0.24419 0.816123 0.520893
96 4 0.23281 0.802038 0.506809
97 1 0.261054 0.814141 0.512801
98 3 0.256735 0.817963 0.495214
99 4 0.270789 0.809611 0.513423
100 1 0.263728 0.836223 0.495292
101 3 0.266676 0.838417 0.47685
102 4 0.265442 0.846061 0.500584
103 1 0.283266 0.830066 0.477939
104 3 0.282032 0.81315 0.480507
105 4 0.292932 0.832897 0.482141
106 1 0.285734 0.808904 0.460976
107 3 0.289641 0.793121 0.467979
108 4 0.287242 0.808196 0.449381
109 1 0.308014 0.797579 0.47257
110 3 0.306506 0.785689 0.485643
111 4 0.317406 0.802251 0.472804
112 1 0.297662 0.796872 0.499805
113 3 0.287036 0.784273 0.50393
114 4 0.295743 0.805365 0.507509
115 1 0.274285 0.787458 0.489223
116 3 0.271063 0.770472 0.487744
117 4 0.267019 0.793404 0.483153
118 1 0.286008 0.767924 0.473504
119 3 0.293275 0.753415 0.479496
120 4 0.291218 0.770401 0.463077
121 1 0.300404 0.762191 0.497938
122 3 0.314527 0.753557 0.499883
123 4 0.294852 0.754689 0.503385
124 1 0.324261 0.763111 0.484943
125 3 0.338795 0.768278 0.491246
126 4 0.326112 0.764173 0.472804
127 1 0.329334 0.782575 0.504863
128 3 0.314458 0.779815 0.510933
129 4 0.330774 0.793404 0.502607
130 1 0.318708 0.775497 0.530698
131 3 0.317886 0.774506 0.549529
132 4 0.315281 0.765022 0.529297
133 1 0.334956 0.784203 0.553187
134 3 0.328923 0.789865 0.569216
135 4 0.344828 0.788095 0.550307
136 1 0.318983 0.804374 0.561357
137 3 0.308288 0.800057 0.574819
138 4 0.314458 0.812584 0.554898
139 1 0.30013 0.785901 0.564548
140 3 0.299719 0.779178 0.581667
141 4 0.294303 0.779885 0.556377
142 1 0.317132 0.770047 0.577776
143 3 0.319394 0.76941 0.596063
144 4 0.326798 0.766579 0.573807
145 1 0.32241 0.788945 0.598475
146 3 0.314801 0.785689 0.614427
147 4 0.325907 0.799278 0.59793
148 1 0.296565 0.788379 0.607112
149 3 0.291698 0.777267 0.619874
150 4 0.288956 0.791563 0.599798
151 1 0.297799 0.761554 0.60719
152 3 0.30013 0.755184 0.624232
153 4 0.300884 0.755609 0.598475
154 1 0.317886 0.760351 0.625866
155 3 0.31391 0.762474 0.644152
156 4 0.328306 0.762757 0.623687
157 1 0.307534 0.78031 0.642907
158 3 0.298485 0.774223 0.65668
159 4 0.305272 0.790714 0.639717
160 1 0.284774 0.767146 0.642985
161 3 0.282855 0.756883 0.656992
162 4 0.277987 0.766084 0.633881
163 1 0.29588 0.743719 0.649677
164 3 0.299033 0.73926 0.66703
165 4 0.302461 0.738552 0.642596
166 1 0.310345 0.755114 0.671699
167 3 0.301844 0.756741 0.687573
168 4 0.31816 0.762545 0.670376
169 1 0.28827 0.767995 0.680181
170 3 0.280181 0.760917 0.693798
171 5 0.295811 0.712703 0.642977
172 1 0.276342 0.744285 0.681892
173 3 0.276411 0.736287 0.697845
174 4 0.274422 0.736499 0.672944
175 1 0.295674 0.736429 0.700179
176 3 0.295537 0.740321 0.718076
177 4 0.305477 0.735084 0.6973
178 1 0.29348 0.760139 0.715119
179 3 0.283129 0.758936 0.729593
180 4 0.293823 0.77026 0.710528
181 1 0.266676 0.75752 0.718777
182 3 0.260574 0.755609 0.735585
183 4 0.259409 0.75476 0.710995
184 1 0.264619 0.737278 0.739086
185 3 0.26743 0.741383 0.757295
186 4 0.267636 0.727157 0.73683
187 1 0.28546 0.747257 0.752782
188 3 0.283883 0.758511 0.766322
189 4 0.295194 0.748036 0.748502
190 1 0.273737 0.771817 0.752393
191 3 0.264139 0.773799 0.767411
192 4 0.270858 0.776417 0.742199
193 1 0.251662 0.75936 0.764065
194 3 0.250908 0.760563 0.782974
195 4 0.24611 0.751079 0.759552
196 1 0.266607 0.749876 0.786787
197 3 0.269144 0.759431 0.801027
198 4 0.274697 0.743011 0.785931
199 1 0.277027 0.774365 0.789121
200 3 0.269761 0.782646 0.803439
201 4 0.282306 0.780239 0.781107
202 1 0.252691 0.785123 0.793479
203 3 0.245698 0.78392 0.811454
204 4 0.245561 0.786397 0.78562
205 1 0.244807 0.763961 0.809898
206 3 0.246795 0.763678 0.828963
207 4 0.246384 0.75391 0.805618
208 1 0.26599 0.763324 0.828496
209 3 0.265716 0.779815 0.828574
210 4 0.275314 0.759431 0.825072
211 1 0.269349 0.782646 0.849039
212 3 0.28258 0.792625 0.849739
213 5 0.267841 0.726032 0.80211
214 1 0.295263 0.777762 0.853474
215 3 0.296428 0.77302 0.835499
216 4 0.297594 0.769481 0.861412
217 1 0.314595 0.777125 0.832853
218 3 0.316995 0.760139 0.836822
219 4 0.322822 0.78399 0.833087
220 1 0.324399 0.756671 0.816435
221 3 0.316857 0.741595 0.816668
222 4 0.332625 0.759219 0.80912
223 1 0.304381 0.744568 0.801961
224 3 0.303078 0.727935 0.803128
225 4 0.298896 0.74931 0.792934
226 1 0.317269 0.724821 0.787176
227 3 0.329951 0.726024 0.797992
228 4 0.321313 0.725246 0.776126
229 1 0.334682 0.706773 0.798381
230 3 0.343594 0.713426 0.784608
231 4 0.333173 0.696086 0.79558
232 1 0.358676 0.718664 0.798537
233 3 0.36841 0.72383 0.785464
234 4 0.364708 0.718735 0.808342
235 1 0.36889 0.707198 0.774881
236 3 0.365668 0.711586 0.757684
237 4 0.374854 0.698068 0.77387
238 1 0.347021 0.710878 0.758696
239 3 0.34565 0.725034 0.749747
240 4 0.338109 0.705004 0.759863
241 1 0.345307 0.737207 0.767256
242 3 0.352917 0.747824 0.756206
243 4 0.344142 0.742091 0.777916
244 1 0.37081 0.740604 0.759163
245 3 0.371975 0.745063 0.741654
246 4 0.378556 0.734872 0.764221
247 1 0.365394 0.729139 0.732161
248 3 0.359293 0.740604 0.720255
249 4 0.363132 0.718593 0.728971
250 1 0.342771 0.743365 0.729826
251 3 0.343457 0.758369 0.720566
252 4 0.333927 0.741949 0.736052
253 1 0.354014 0.767712 0.734573
254 3 0.362035 0.775497 0.721033
255 4 0.356619 0.773091 0.744456
256 1 0.373483 0.759926 0.717454
257 3 0.374169 0.766792 0.700179
258 4 0.378693 0.750442 0.718621
259 1 0.35799 0.75844 0.694421
260 3 0.355591 0.771321 0.683293
261 4 0.349284 0.751646 0.693954
262 1 0.349626 0.784415 0.698856
263 3 0.357853 0.794748 0.687184
264 4 0.345376 0.7876 0.708972
265 1 0.374443 0.793758 0.698
266 3 0.382532 0.795456 0.681892
267 4 0.381298 0.793545 0.706871
268 1 0.380681 0.776842 0.676056
269 3 0.380407 0.78576 0.65956
270 4 0.379859 0.766225 0.675667
271 1 0.361349 0.786468 0.659015
272 3 0.364023 0.800764 0.64921
273 4 0.351409 0.783707 0.660026
274 1 0.366628 0.812655 0.666641
275 3 0.376842 0.819803 0.654502
276 4 0.366971 0.817255 0.677613
277 1 0.391513 0.80763 0.65847
278 3 0.396517 0.810885 0.641506
279 4 0.398574 0.801118 0.663684
280 1 0.385 0.795881 0.632636
281 3 0.382327 0.807063 0.61824
282 4 0.38027 0.786468 0.631468
283 1 0.368822 0.816972 0.627578
284 3 0.375746 0.831127 0.618473
285 4 0.359978 0.819379 0.633958
286 1 0.387605 0.835586 0.636293
287 3 0.398917 0.840965 0.622909
288 4 0.390073 0.83594 0.647887
289 1 0.405155 0.823413 0.618785
290 3 0.406595 0.823201 0.600342
291 4 0.41016 0.814283 0.621041
292 1 0.387674 0.821502 0.595751
293 3 0.386577 0.834454 0.58369
294 4 0.378625 0.815486 0.595596
295 1 0.384178 0.847901 0.59863
296 3 0.394941 0.856395 0.587814
297 4 0.381024 0.853705 0.607968
298 1 0.409817 0.849246 0.596529
299 3 0.414753 0.851653 0.579021
300 4 0.417221 0.845637 0.604311
301 1 0.410914 0.832755 0.573029
302 3 0.411462 0.83863 0.555132
303 4 0.407897 0.822422 0.573029
304 1 0.393638 0.845778 0.554198
305 3 0.400562 0.857598 0.54486
306 4 0.382944 0.84684 0.555288
307 1 0.403373 0.870196 0.561824
308 3 0.415301 0.876354 0.550541
309 4 0.403716 0.873876 0.57264
310 1 0.427778 0.862411 0.555288
311 3 0.433057 0.861491 0.537779
312 4 0.434154 0.856324 0.562524
313 1 0.419346 0.849459 0.53062
314 3 0.418935 0.858235 0.514512
315 4 0.412011 0.841107 0.531165
316 1 0.407006 0.872815 0.523461
317 3 0.415507 0.882865 0.512411
318 4 0.399397 0.876 0.530309
319 1 0.429835 0.885767 0.527741
320 3 0.439501 0.888739 0.51319
321 4 0.434154 0.88697 0.538635
322 1 0.445397 0.869347 0.510388
323 3 0.446356 0.873876 0.492335
324 4 0.447659 0.859226 0.512723
325 1 0.427572 0.874301 0.488756
326 3 0.425173 0.886192 0.475838
327 4 0.417495 0.870054 0.489378
328 1 0.429355 0.901267 0.487199
329 3 0.439432 0.91344 0.481597
330 4 0.42483 0.907778 0.495059
331 1 0.455406 0.903673 0.486888
332 3 0.455474 0.901621 0.467746
333 4 0.462467 0.896454 0.491479
334 1 0.466511 0.919032 0.465411
335 3 0.461301 0.913865 0.448603
336 4 0.474601 0.912803 0.462376
337 1 0.447522 0.927454 0.445568
338 3 0.434634 0.918607 0.438565
339 4 0.444094 0.937434 0.446969
340 1 0.431549 0.907637 0.457241
341 3 0.43621 0.897233 0.443234
342 4 0.421951 0.909335 0.452727
343 1 0.440872 0.881945 0.455684
344 3 0.425996 0.874372 0.455762
345 4 0.446288 0.877344 0.465022
346 1 0.429286 0.863826 0.438176
347 3 0.441969 0.857315 0.429072
348 4 0.423048 0.867931 0.42876
349 1 0.435251 0.838205 0.431173
350 3 0.422157 0.83134 0.42238
351 4 0.437102 0.831623 0.440588
352 1 0.43244 0.825819 0.405027
353 3 0.422362 0.811947 0.403471
354 4 0.439775 0.824899 0.396701
355 1 0.431069 0.802251 0.4195
356 3 0.430589 0.810744 0.435686
357 4 0.439981 0.796235 0.419111
358 1 0.413999 0.802534 0.442222
359 3 0.403579 0.789228 0.446891
360 4 0.404744 0.807771 0.439732
361 1 0.417221 0.780735 0.458719
362 3 0.411668 0.785123 0.475372
363 4 0.426887 0.778328 0.46331
364 1 0.396449 0.773657 0.474749
365 3 0.397957 0.769977 0.492335
366 4 0.3874 0.769552 0.471636
367 1 0.413039 0.756812 0.489456
368 3 0.417701 0.759714 0.506653
369 4 0.419346 0.749664 0.484087
370 1 0.42723 0.77663 0.501284
371 3 0.422157 0.783212 0.517547
372 4 0.433674 0.783283 0.495448
373 1 0.40447 0.787246 0.511011
374 3 0.400288 0.782292 0.527741
375 4 0.396655 0.791068 0.504552
376 1 0.398368 0.763394 0.52315
377 3 0.403784 0.759431 0.539958
378 4 0.395763 0.754123 0.51638
379 1 0.421951 0.763253 0.535523
380 3 0.42435 0.769623 0.551941
381 4 0.431343 0.763041 0.529375
382 1 0.417152 0.787671 0.548051
383 3 0.411257 0.786255 0.565014
384 4 0.413176 0.796518 0.543071
385 1 0.395078 0.776559 0.559879
386 3 0.395832 0.770472 0.577076
387 4 0.3874 0.772808 0.552797
388 1 0.408789 0.755043 0.570384
389 3 0.41633 0.756812 0.586725
390 4 0.412902 0.748178 0.562057
391 1 0.428464 0.771038 0.579488
392 3 0.427847 0.774082 0.597697
393 4 0.434154 0.778682 0.573185
394 1 0.411531 0.785052 0.596996
395 3 0.410091 0.780098 0.614505
396 4 0.404196 0.792271 0.593572
397 1 0.402345 0.762545 0.611081
398 3 0.411874 0.757308 0.62571
399 4 0.396449 0.755184 0.605011
400 1 0.426613 0.751646 0.613571
401 3 0.436759 0.755821 0.627344
402 4 0.431617 0.747824 0.604311
403 1 0.437033 0.775285 0.623998
404 3 0.436416 0.775993 0.641973
405 4 0.436485 0.785052 0.618862
406 1 0.417426 0.777125 0.64353
407 3 0.41914 0.770897 0.66096
408 4 0.407212 0.778116 0.639795
409 1 0.419963 0.751999 0.654424
410 3 0.430863 0.751362 0.667964
411 4 0.417495 0.742586 0.648899
412 1 0.445876 0.755326 0.654346
413 3 0.45424 0.761837 0.668664
414 5 0.436347 0.689634 0.613173
415 1 0.446288 0.779178 0.667652
416 3 0.44334 0.783353 0.685705
417 4 0.445671 0.788025 0.661583
418 1 0.426339 0.772949 0.688273
419 3 0.428601 0.76297 0.703914
420 4 0.415987 0.772171 0.685861
421 1 0.439295 0.749947 0.693565
422 3 0.445054 0.744993 0.709595
423 4 0.444642 0.744497 0.684383
424 1 0.456571 0.758582 0.714653
425 3 0.453349 0.759714 0.733172
426 4 0.463563 0.76665 0.712863
427 1 0.436896 0.768773 0.731538
428 3 0.433674 0.763041 0.748736
429 4 0.429835 0.776134 0.728426
430 1 0.427161 0.745983 0.743989
431 3 0.435388 0.737703 0.756984
432 4 0.420991 0.738835 0.737608
433 1 0.451429 0.734376 0.744611
434 3 0.459107 0.735579 0.761342
435 4 0.457256 0.733244 0.735196
436 1 0.459862 0.75568 0.760252
437 3 0.459793 0.755538 0.778539
438 4 0.45993 0.766084 0.755505
439 1 0.439707 0.752212 0.77885
440 3 0.441489 0.74294 0.794102
441 5 0.445739 0.693977 0.736855
442 1 0.447727 0.727369 0.78383
443 3 0.459176 0.72291 0.796903
444 4 0.448207 0.719088 0.776049
445 1 0.473024 0.735225 0.787721
446 3 0.47748 0.738764 0.805929
447 4 0.479057 0.740038 0.779083
448 1 0.466374 0.754335 0.807486
449 3 0.451087 0.759856 0.804218
450 4 0.471859 0.763678 0.806396
451 1 0.444437 0.752141 0.82336
452 3 0.432577 0.762262 0.829974
453 4 0.444437 0.744497 0.831608
454 1 0.444505 0.778682 0.829274
455 3 0.438815 0.791847 0.819391
456 4 0.4528 0.784132 0.834176
457 1 0.44238 0.78399 0.799549
458 3 0.43244 0.77118 0.796047
459 4 0.450949 0.782363 0.792156
460 1 0.421814 0.783 0.781651
461 3 0.405635 0.783636 0.786631
462 4 0.425516 0.776347 0.773092
463 1 0.40495 0.765164 0.79558
464 3 0.400905 0.759006 0.811688
465 4 0.40495 0.754972 0.791767
466 1 0.41064 0.774152 0.822504
467 3 0.395215 0.77939 0.825539
468 4 0.417495 0.782575 0.823438
469 1 0.394392 0.769977 0.845382
470 3 0.377734 0.768844 0.845226
471 4 0.393501 0.779744 0.851218
472 1 0.377734 0.756104 0.828807
473 3 0.366217 0.760422 0.817057
474 5 0.385754 0.685864 0.778725
475 1 0.373757 0.777762 0.811454
476 3 0.378213 0.769764 0.795502
477 4 0.37979 0.787105 0.809742
478 1 0.361212 0.773515 0.785464
479 3 0.353945 0.783212 0.772236
480 4 0.352848 0.766579 0.785775
481 1 0.356276 0.800552 0.782118
482 3 0.360938 0.814424 0.773636
483 4 0.353191 0.806922 0.790911
484 1 0.377734 0.805436 0.7664
485 3 0.387263 0.818883 0.769668
486 4 0.380407 0.796447 0.760096
487 1 0.400562 0.809116 0.779939
488 3 0.394598 0.821431 0.7906
489 4 0.407349 0.809611 0.770212
490 1 0.410297 0.828509 0.797525
491 3 0.414067 0.838276 0.78313
492 4 0.419346 0.82865 0.803673
493 1 0.403647 0.853493 0.790756
494 3 0.410228 0.862765 0.777138
495 4 0.397751 0.859084 0.798848
496 1 0.427504 0.865171 0.786398
497 3 0.432646 0.86418 0.768578
498 4 0.435319 0.865737 0.794802
499 1 0.43573 0.843655 0.770135
500 3 0.43292 0.843513 0.751381
501 4 0.436759 0.833675 0.775426
502 1 0.413519 0.844292 0.753482
503 3 0.413519 0.853705 0.738464
504 4 0.40351 0.84415 0.758151
505 1 0.41585 0.871328 0.749669
506 3 0.421814 0.87784 0.734573
507 4 0.416467 0.878689 0.758618
508 1 0.439501 0.868568 0.736285
509 3 0.440392 0.868002 0.716987
510 4 0.447796 0.862623 0.740876
511 1 0.426818 0.854413 0.715275
512 3 0.418523 0.863472 0.702669
513 5 0.43052 0.778272 0.665635
514 1 0.406389 0.871258 0.715353
515 3 0.406526 0.883785 0.702747
516 4 0.399808 0.874513 0.723757
517 1 0.423528 0.891712 0.709672
518 3 0.426064 0.894826 0.69123
519 4 0.431754 0.895817 0.716598
520 1 0.431754 0.878265 0.685783
521 3 0.423322 0.880246 0.66952
522 4 0.437581 0.869701 0.684772
523 1 0.407143 0.872178 0.675589
524 3 0.39926 0.882865 0.664773
525 4 0.399397 0.86602 0.679325
526 1 0.402276 0.898365 0.679013
527 3 0.405635 0.907071 0.663684
528 4 0.402345 0.904027 0.689363
529 1 0.425105 0.905584 0.666018
530 3 0.423802 0.909052 0.648199
531 4 0.435182 0.903178 0.67022
532 1 0.425584 0.890509 0.641973
533 3 0.415987 0.892137 0.627111
534 4 0.434154 0.884281 0.639872
535 1 0.402619 0.878265 0.634425
536 3 0.392199 0.889093 0.626877
537 4 0.399054 0.869559 0.641195
538 1 0.386714 0.896808 0.645942
539 3 0.384109 0.913653 0.646564
540 4 0.38123 0.894968 0.655669
541 1 0.399945 0.91797 0.636526
542 3 0.399808 0.917192 0.617929
543 4 0.405087 0.924765 0.643685
544 1 0.419483 0.916271 0.616294
545 3 0.417289 0.91252 0.59793
546 4 0.429835 0.915281 0.618395
547 1 0.409748 0.895534 0.600576
548 3 0.401111 0.89886 0.585246
549 4 0.40824 0.885484 0.605011
550 1 0.385549 0.904947 0.59544
551 3 0.384726 0.914219 0.580577
552 4 0.376705 0.905372 0.602443
553 1 0.394049 0.930002 0.588203
554 3 0.399945 0.933399 0.571084
555 4 0.397546 0.93892 0.59474
556 1 0.411599 0.917616 0.569839
557 3 0.406732 0.915351 0.55163
558 4 0.418318 0.909548 0.572562
559 1 0.391102 0.904735 0.557311
560 3 0.383561 0.912733 0.543615
561 4 0.386166 0.897233 0.563925
562 1 0.377528 0.92802 0.555521
563 3 0.378419 0.936797 0.539725
564 4 0.37362 0.934673 0.563925
565 1 0.398368 0.940194 0.542915
566 3 0.400973 0.937788 0.524395
567 4 0.407486 0.942388 0.548985
568 1 0.401453 0.918536 0.526029
569 3 0.395626 0.919669 0.508599
570 4 0.402756 0.908486 0.528675
571 1 0.377322 0.920943 0.515446
572 3 0.3765 0.93163 0.501051
573 4 0.368273 0.920164 0.521516
574 1 0.381024 0.948333 0.511089
575 3 0.388497 0.956614 0.497393
576 4 0.38267 0.956189 0.519415
577 1 0.404058 0.944157 0.495603
578 3 0.405635 0.942813 0.476694
579 4 0.412285 0.938354 0.500272
580 1 0.391993 0.930073 0.474049
581 3 0.386783 0.943733 0.464633
582 4 0.383492 0.923915 0.475916
583 1 0.39309 0.938991 0.446035
584 3 0.394049 0.926959 0.432029
585 4 0.402482 0.943733 0.445257
586 1 0.380613 0.935381 0.419111
587 3 0.382327 0.95074 0.411563
588 4 0.369781 0.93531 0.420045
589 1 0.387331 0.9426 0.390865
590 3 0.400014 0.951943 0.383939
591 4 0.37979 0.949253 0.386507
592 1 0.412353 0.94437 0.396934
593 3 0.414479 0.929931 0.405961
594 4 0.413793 0.953004 0.404093
595 1 0.432783 0.927454 0.399891
596 3 0.443957 0.937292 0.39211
597 4 0.430863 0.918395 0.393666
598 1 0.458353 0.92618 0.398802
599 3 0.469528 0.919032 0.386896
600 4 0.464386 0.92618 0.408918
601 1 0.458559 0.902258 0.385495
602 3 0.450058 0.907424 0.370555
603 4 0.4528 0.894118 0.390009
604 1 0.461507 0.897445 0.355537
605 3 0.448002 0.887749 0.355926
606 4 0.470282 0.893411 0.350945
607 1 0.439432 0.897374 0.339896
608 3 0.445328 0.903107 0.323321
609 4 0.4334 0.905584 0.344176
610 1 0.434359 0.892915 0.311338
611 3 0.424076 0.906363 0.311571
612 4 0.428806 0.884634 0.307213
613 1 0.43196 0.915705 0.295386
614 3 0.434702 0.923066 0.31266
615 4 0.421814 0.91613 0.29165
616 1 0.439638 0.940831 0.30379
617 3 0.42675 0.945714 0.312505
618 5 0.436827 0.872322 0.287041
619 1 0.437581 0.949749 0.331647
620 3 0.428806 0.936514 0.337094
621 4 0.429972 0.957393 0.333048
622 1 0.439775 0.931842 0.354291
623 3 0.425859 0.925614 0.360205
624 4 0.448276 0.930144 0.360828
625 1 0.419277 0.943237 0.366975
626 3 0.413039 0.944582 0.349311
627 4 0.418935 0.953641 0.369699
628 1 0.398026 0.932762 0.353513
629 3 0.386714 0.933966 0.367131
630 4 0.399397 0.922146 0.350712
631 1 0.372935 0.939628 0.353124
632 3 0.369781 0.922146 0.351568
633 4 0.367656 0.943945 0.343864
634 1 0.355865 0.922004 0.365497
635 3 0.338726 0.919952 0.363318
636 4 0.358607 0.918536 0.376936
637 1 0.334339 0.937434 0.368687
638 3 0.32289 0.94529 0.359272
639 4 0.334133 0.94529 0.377714
640 1 0.334544 0.946422 0.341685
641 3 0.34613 0.935452 0.336472
642 4 0.337767 0.956756 0.34332
643 1 0.339138 0.933682 0.316007
644 3 0.350312 0.945361 0.310093
645 4 0.331871 0.93255 0.307291
646 1 0.362309 0.931772 0.301144
647 3 0.366971 0.933753 0.28348
648 4 0.369301 0.92434 0.303712
649 1 0.350449 0.936938 0.275154
650 3 0.334544 0.936938 0.271808
651 4 0.351546 0.92894 0.266983
652 1 0.345856 0.95534 0.284881
653 3 0.350175 0.958525 0.267061
654 4 0.339823 0.962559 0.290328
655 1 0.364297 0.970345 0.269784
656 3 0.373003 0.956756 0.265116
657 4 0.368616 0.979687 0.274064
658 1 0.371838 0.961568 0.243172
659 3 0.384383 0.971902 0.240215
660 4 0.365668 0.963267 0.233445
661 1 0.397683 0.958737 0.239981
662 3 0.403441 0.967089 0.225196
663 4 0.402962 0.949607 0.242549
664 1 0.394187 0.956685 0.210256
665 3 0.395695 0.969 0.197961
666 4 0.388702 0.948192 0.205042
667 1 0.384041 0.98089 0.209556
668 3 0.396792 0.990091 0.20372
669 4 0.375129 0.983863 0.214925
670 1 0.40159 0.996532 0.223718
671 3 0.415644 0.999717 0.214225
672 4 0.402619 0.996532 0.235779
673 1 0.423254 0.980961 0.218738
674 3 0.431686 0.975865 0.20442
675 4 0.42531 0.972114 0.224807
676 1 0.41866 0.97997 0.189635
677 3 0.428121 0.969212 0.179441
678 4 0.42531 0.987189 0.1852
679 1 0.417906 0.952934 0.186133
680 3 0.401316 0.951377 0.182165
681 4 0.418386 0.946918 0.196172
682 1 0.404538 0.942246 0.162555
683 3 0.399602 0.930993 0.175551
684 4 0.409817 0.937221 0.153062
685 1 0.384109 0.925472 0.164501
686 3 0.392678 0.913087 0.156564
687 4 0.375129 0.925968 0.157731
688 1 0.388634 0.899497 0.170648
689 3 0.37883 0.894685 0.184499
690 4 0.397889 0.897091 0.175317
691 1 0.375129 0.876991 0.174772
692 3 0.387537 0.872249 0.185589
693 4 0.37362 0.86871 0.166524
694 1 0.364091 0.867577 0.193137
695 3 0.363954 0.879539 0.206599
696 4 0.361349 0.857598 0.197105
697 1 0.345445 0.885767 0.202708
698 3 0.343525 0.876212 0.218271
699 4 0.336395 0.888032 0.197339
700 1 0.344211 0.890721 0.232044
701 3 0.329814 0.898931 0.231266
702 4 0.349558 0.897799 0.238036
703 1 0.320628 0.887607 0.244728
704 3 0.324878 0.893269 0.261925
705 4 0.316172 0.877981 0.245662
706 1 0.311922 0.907991 0.262625
707 3 0.304655 0.895109 0.272741
708 4 0.304106 0.914502 0.258579
709 1 0.309659 0.899851 0.291417
710 3 0.295057 0.908415 0.290328
711 5 0.313018 0.821627 0.283006
712 1 0.286625 0.897657 0.306124
713 3 0.278261 0.904098 0.320987
714 4 0.283677 0.887961 0.310015
715 1 0.290121 0.919669 0.322932
716 3 0.27785 0.928374 0.314684
717 4 0.298211 0.926393 0.322232
718 1 0.267773 0.931347 0.333437
719 3 0.275451 0.933541 0.349778
720 4 0.258655 0.92618 0.332892
721 1 0.262357 0.949749 0.354369
722 3 0.275931 0.959162 0.351257
723 5 0.262768 0.877081 0.340869
724 1 0.276685 0.96539 0.371878
725 3 0.287585 0.952651 0.373045
726 4 0.273051 0.969071 0.382694
727 1 0.302735 0.963479 0.374835
728 3 0.301638 0.965532 0.393355
729 4 0.310276 0.970982 0.371566
730 1 0.308288 0.948333 0.398724
731 3 0.31816 0.935877 0.392265
732 4 0.299308 0.944865 0.403237
733 1 0.330705 0.937009 0.408139
734 3 0.321656 0.92342 0.414987
735 4 0.337012 0.939911 0.417322
736 1 0.332419 0.90976 0.405961
737 3 0.346816 0.903886 0.413353
738 4 0.334544 0.906858 0.394211
739 1 0.338041 0.892349 0.42806
740 3 0.324261 0.884918 0.432962
741 4 0.339549 0.896029 0.439655
742 1 0.330843 0.86602 0.430861
743 3 0.331459 0.853564 0.444479
744 4 0.331048 0.859084 0.421991
745 1 0.343799 0.865242 0.457163
746 3 0.342634 0.871682 0.474905
747 4 0.35422 0.866586 0.456929
748 1 0.328032 0.883007 0.470391
749 3 0.332282 0.893057 0.484943
750 4 0.321176 0.878689 0.478484
751 1 0.346816 0.901338 0.47257
752 3 0.344211 0.91613 0.481286
753 4 0.354699 0.902824 0.464088
754 1 0.333105 0.923774 0.46689
755 3 0.323781 0.932125 0.479574
756 4 0.329814 0.927737 0.456151
757 1 0.313361 0.915776 0.484476
758 3 0.314321 0.922146 0.502451
759 4 0.308974 0.905938 0.484865
760 1 0.331597 0.913653 0.506031
761 3 0.332282 0.928091 0.516147
762 4 0.340097 0.907283 0.505175
763 1 0.342223 0.938708 0.501051
764 3 0.335573 0.954137 0.506498
765 4 0.349078 0.940689 0.492724
766 1 0.318091 0.949536 0.499261
767 3 0.310688 0.957039 0.514357
768 4 0.311236 0.944511 0.491791
769 1 0.310756 0.941043 0.527352
770 3 0.316515 0.944441 0.544783
771 4 0.306917 0.930851 0.528364
772 1 0.334613 0.944441 0.538635
773 3 0.335778 0.951235 0.556299
774 4 0.342702 0.946705 0.531087
775 1 0.332899 0.969071 0.551552
776 3 0.326661 0.971194 0.568594
777 5 0.333036 0.901257 0.521273
778 1 0.310002 0.959657 0.562913
779 3 0.311579 0.953925 0.580733
780 4 0.301501 0.955977 0.556922
781 1 0.320422 0.937151 0.575831
782 3 0.328786 0.939132 0.591783
783 4 0.323096 0.927454 0.571084
784 1 0.341948 0.951872 0.58369
785 3 0.341606 0.957251 0.601432
786 4 0.347021 0.958879 0.57692
787 1 0.325838 0.967584 0.599097
788 3 0.32193 0.963409 0.616839
789 4 0.320011 0.975582 0.593884
790 1 0.314595 0.94621 0.612248
791 3 0.321725 0.941893 0.628045
792 4 0.308562 0.938 0.607034
793 1 0.339138 0.93984 0.621041
794 3 0.343731 0.947696 0.636993
795 4 0.346541 0.936655 0.61326
796 1 0.343594 0.965957 0.629056
797 3 0.340783 0.970203 0.647031
798 4 0.345445 0.974874 0.622131
799 1 0.322822 0.96532 0.648276
800 3 0.323713 0.958667 0.666174
801 4 0.312196 0.965603 0.646175
802 1 0.328923 0.940548 0.660104
803 3 0.33996 0.937575 0.673411
804 4 0.32762 0.931488 0.653879
805 1 0.354974 0.944794 0.661583
806 3 0.362103 0.950386 0.676445
807 4 0.361418 0.945007 0.651778
808 1 0.353945 0.968858 0.676523
809 3 0.359087 0.96808 0.693565
810 4 0.346953 0.97721 0.673177
811 1 0.345445 0.958383 0.702436
812 3 0.353191 0.948546 0.713641
813 4 0.33571 0.955765 0.704225
814 1 0.360115 0.936443 0.697767
815 3 0.373689 0.93524 0.708972
816 4 0.359704 0.929861 0.688273
817 1 0.38219 0.951518 0.698467
818 3 0.3874 0.953217 0.716131
819 4 0.385137 0.95902 0.690608
820 1 0.373072 0.96447 0.722823
821 3 0.377939 0.957109 0.73862
822 4 0.364914 0.971265 0.722823
823 1 0.366148 0.940406 0.736985
824 3 0.376774 0.93255 0.747568
825 4 0.357853 0.934107 0.734884
826 1 0.388839 0.928799 0.729749
827 3 0.401385 0.930639 0.74111
828 4 0.391924 0.925756 0.718777
829 1 0.403167 0.949678 0.739709
830 3 0.408994 0.946776 0.756673
831 4 0.403853 0.960436 0.737297
832 1 0.391307 0.947059 0.76601
833 3 0.397957 0.936514 0.77776
834 4 0.381093 0.948616 0.768189
835 1 0.395352 0.920164 0.765855
836 3 0.408789 0.914007 0.773792
837 4 0.390827 0.914502 0.757217
838 1 0.420443 0.921651 0.75784
839 3 0.431206 0.92434 0.770913
840 4 0.423322 0.926039 0.747568
841 1 0.423871 0.940902 0.779706
842 3 0.427367 0.936018 0.797292
843 4 0.42106 0.950881 0.779006
844 1 0.412079 0.924057 0.799471
845 3 0.421814 0.913016 0.807875
846 4 0.40255 0.919456 0.79986
847 1 0.426818 0.90339 0.789588
848 3 0.426887 0.886475 0.794179
849 4 0.436073 0.90424 0.795424
850 1 0.407418 0.88513 0.792545
851 3 0.3959 0.893128 0.78313
852 4 0.404196 0.88421 0.803906
853 1 0.390416 0.87968 0.771302
854 3 0.377391 0.879468 0.782429
855 4 0.388771 0.870125 0.765544
856 1 0.369164 0.89518 0.770991
857 3 0.357167 0.888173 0.780951
858 4 0.36272 0.893623 0.761886
859 1 0.361349 0.898082 0.79916
860 3 0.350929 0.911034 0.798693
861 4 0.366833 0.903249 0.807564
862 1 0.334819 0.900134 0.799082
863 3 0.328032 0.914785 0.803595
864 4 0.328237 0.891712 0.801027
865 1 0.333379 0.91521 0.823983
866 3 0.339892 0.929648 0.831842
867 4 0.331939 0.910185 0.834254
868 1 0.353671 0.931347 0.817913
869 3 0.349763 0.945148 0.808809
870 4 0.363269 0.928374 0.817135
871 1 0.34709 0.937575 0.789355
872 3 0.335436 0.946847 0.782585
873 4 0.351546 0.933046 0.779861
874 1 0.321588 0.938354 0.792312
875 3 0.317132 0.93255 0.775737
876 5 0.33098 0.866146 0.750293
877 1 0.302804 0.946422 0.77387
878 3 0.30109 0.940335 0.756673
879 4 0.297662 0.955765 0.774959
880 1 0.316789 0.949607 0.74858
881 3 0.315144 0.936726 0.73683
882 4 0.325153 0.956189 0.747179
883 1 0.325221 0.924694 0.749825
884 3 0.315007 0.913582 0.74181
885 4 0.330774 0.921438 0.759007
886 1 0.301364 0.915635 0.758073
887 3 0.291081 0.909972 0.744611
888 4 0.295743 0.918324 0.7678
889 1 0.29019 0.928374 0.734962
890 3 0.290944 0.921084 0.718232
891 4 0.289093 0.939628 0.734184
892 1 0.310208 0.919598 0.716987
893 3 0.306917 0.906717 0.706171
894 4 0.320697 0.92158 0.718699
895 1 0.305546 0.894189 0.725547
896 3 0.295606 0.887324 0.712707
897 4 0.304929 0.891783 0.737375
898 1 0.279564 0.89886 0.717843
899 3 0.2736 0.898011 0.700879
900 4 0.273394 0.90516 0.725235
901 1 0.285802 0.911529 0.69232
902 3 0.287653 0.902116 0.677068
903 4 0.291561 0.92066 0.691152
904 1 0.300336 0.88973 0.685005
905 3 0.292864 0.877415 0.675045
906 5 0.29636 0.816054 0.640598
907 1 0.279701 0.872956 0.690141
908 3 0.268595 0.871753 0.676368
909 4 0.274697 0.872319 0.701657
910 1 0.264414 0.890013 0.674733
911 3 0.265031 0.884564 0.656914
912 4 0.261466 0.900064 0.677301
913 1 0.281758 0.892986 0.651778
914 3 0.280524 0.882582 0.637304
915 4 0.291012 0.898011 0.652712
916 1 0.286214 0.866799 0.647343
917 3 0.275382 0.857739 0.637227
918 4 0.291698 0.859509 0.654579