LAMMPS protain data file

        2694  atoms
        3586  bonds
           0  angles
           0  dihedrals
           0  impropers

           5  atom types
           5  bond types
           0  angle types
           0  dihedral types
           0  improper types

-200.0	200.0	xlo xhi
-200.0	200.0	ylo yhi
-200.0	200.0	zlo zhi

Masses

           1	27.0
           2	14.0
           3	28.0
           4	60.0
           5	60.0

Atoms

           1	1	1	1	0.0	1.807	-11.710001	13.516999
           2	1	1	3	0.0	1.565	-14.12	13.404
           3	1	1	4	0.0	3.217	-11.135	13.478
           4	1	2	1	0.0	1.968	-14.151	10.663
           5	1	2	3	0.0	4.02	-13.218	9.863
           6	1	2	4	0.0	0.747	-14.197999	9.704
           7	1	3	1	0.0	4.712	-15.483001	8.468
           8	1	3	3	0.0	3.421	-14.388	6.73
           9	1	3	4	0.0	5.182	-16.923	8.439
          10	1	4	1	0.0	5.403	-14.611	4.86
          11	1	4	3	0.0	3.837	-14.955	3.078
          12	1	4	4	0.0	6.782	-14.553001	4.215
          13	1	5	1	0.0	3.47	-17.632	3.587
          14	1	5	3	0.0	1.295	-17.131	2.731
          15	1	5	4	0.0	3.683	-19.105	4.024
          16	1	6	1	0.0	0.205	-16.582	5.14
          17	1	6	3	0.0	-1.18	-14.825	4.324
          18	1	6	4	0.0	-0.19	-16.737	6.607
          19	1	7	1	0.0	0.804	-12.946999	4.205
          20	1	7	3	0.0	-0.28	-12.237001	2.18
          21	1	7	4	0.0	2.008	-12.108999	4.599
          22	1	8	1	0.0	1.257	-13.829001	0.546
          23	1	8	3	0.0	-0.728	-14.194	-0.758
          24	1	8	4	0.0	2.485	-14.497	-0.068
          25	1	9	1	0.0	-1.651	-16.23	0.821
          26	1	9	3	0.0	-3.753	-15.277999	0.128
          27	1	9	4	0.0	-1.786	-17.41	1.773
          28	1	10	1	0.0	-3.96	-13.553001	2.239
          29	1	10	3	0.0	-4.972	-11.945	0.795
          30	1	10	4	0.0	-3.911	-12.975	3.655
          31	1	11	1	0.0	-2.639	-11.018	-0.259
          32	1	11	3	0.0	-3.952	-10.792999	-2.247
          33	1	11	4	0.0	-1.18	-10.61	-0.428
          34	1	12	1	0.0	-3.459	-13.336	-3.15
          35	1	12	3	0.0	-5.6589994	-13.528	-4.025
          36	1	12	4	0.0	-2.706	-14.597	-3.528
          37	1	13	1	0.0	-6.844	-14.191	-1.63
          38	1	13	3	0.0	-8.602	-12.823	-2.54
          39	1	13	4	0.0	-7.1	-14.814999	-0.255
          40	1	14	1	0.0	-7.786	-10.545	-1.341
          41	1	14	3	0.0	-8.466	-9.238	-3.202
          42	1	14	4	0.0	-7.3090005	-9.575	-0.257
          43	1	15	1	0.0	-6.268	-9.724	-4.727
          44	1	15	3	0.0	-7.774	-9.727	-6.592
          45	1	15	4	0.0	-4.81	-9.904	-5.125
          46	1	16	1	0.0	-8.282	-12.394001	-6.469
          47	1	16	3	0.0	-10.569	-11.898	-7.037
          48	1	16	4	0.0	-8.057	-13.929	-6.365
          49	1	17	1	0.0	-11.301	-11.272	-4.478
          50	1	17	3	0.0	-12.794	-9.674	-5.442
          51	1	17	5	0.0	-9.999	-10.933612	-3.4459558
          52	1	18	1	0.0	-10.88	-7.7769995	-5.845
          53	1	18	3	0.0	-11.995	-7.241	-7.894
          54	1	18	4	0.0	-9.694	-6.8410006	-5.6249995
          55	1	19	1	0.0	-10.674	-9.099	-9.377
          56	1	19	3	0.0	-12.673001	-9.544	-10.627
          57	1	19	4	0.0	-9.545	-9.933	-9.974
          58	1	20	1	0.0	-13.758	-11.199	-8.736
          59	1	20	3	0.0	-15.915	-10.202	-9.141
          60	1	20	4	0.0	-13.854999	-12.381	-7.7509995
          61	1	21	1	0.0	-15.491	-8.077	-7.485
          62	1	21	3	0.0	-16.698	-6.772	-9.113
          63	1	21	4	0.0	-15.090001	-7.176	-6.321
          64	1	22	1	0.0	-14.578001	-6.42	-10.76
          65	1	22	3	0.0	-15.795	-6.641	-12.808
          66	1	22	4	0.0	-13.172	-6.117	-11.252999
          67	1	23	1	0.0	-16.173	-9.348	-12.562
          68	1	23	3	0.0	-18.137	-10.698	-12.608
          69	1	23	4	0.0	-15.34	-10.576	-12.942
          70	1	24	1	0.0	-19.267	-9.513	-10.272
          71	1	24	3	0.0	-20.477	-11.558	-10.043
          72	1	24	4	0.0	-20.425	-9.055	-11.157
          73	1	25	1	0.0	-18.319	-12.915	-8.891
          74	1	25	3	0.0	-17.202	-12.079	-6.9409995
          75	1	25	4	0.0	-17.289	-13.768	-9.66
          76	1	26	1	0.0	-18.526	-13.77	-5.209
          77	1	26	3	0.0	-16.344	-14.828	-5.458
          78	1	26	4	0.0	-19.535	-14.73	-4.594
          79	1	27	1	0.0	-15.39	-13.783	-3.083
          80	1	27	3	0.0	-14.004	-15.632	-2.51
          81	1	27	4	0.0	-15.098	-12.656	-2.083
          82	1	28	1	0.0	-15.973	-17.023	-1.181
          83	1	28	3	0.0	-14.634	-18.951	-1.557
          84	1	28	4	0.0	-17.256	-17.411	-0.445
          85	1	29	1	0.0	-15.386	-19.508	-4.061
          86	1	29	3	0.0	-13.166	-20.187	-4.584
          87	1	29	4	0.0	-16.313	-19.609	-5.286
          88	1	30	1	0.0	-12.248	-17.641	-5.096
          89	1	30	3	0.0	-10.214	-18.429	-4.098
          90	1	30	4	0.0	-12.179	-16.18	-5.5910006
          91	1	31	1	0.0	-10.988	-17.873	-1.546
          92	1	31	3	0.0	-9.858	-19.849	-0.811
          93	1	31	4	0.0	-11.593999	-17.175	-0.329
          94	1	32	1	0.0	-11.849	-21.549	-1.527
          95	1	32	3	0.0	-10.244	-23.162003	-2.24
          96	1	32	4	0.0	-13.256	-22.155	-1.663
          97	1	33	1	0.0	-9.892	-22.083	-4.731
          98	1	33	3	0.0	-7.581	-22.689999	-4.416
          99	1	33	4	0.0	-10.214	-21.483	-6.118
         100	1	34	1	0.0	-6.87	-20.296	-3.316
         101	1	34	3	0.0	-5.338	-21.576998	-1.965
         102	1	34	4	0.0	-6.77	-18.784	-3.054
         103	1	35	1	0.0	-7.224	-22.268	-0.101
         104	1	35	3	0.0	-6.04	-24.338	0.014
         105	1	35	4	0.0	-8.425	-22.256	0.832
         106	1	36	1	0.0	-7.3150005	-25.497002	-2.122
         107	1	36	3	0.0	-5.4070005	-26.6	-2.987
         108	1	36	4	0.0	-8.445	-25.952	-3.04
         109	1	37	1	0.0	-4.266	-24.385	-4.086
         110	1	37	3	0.0	-2.241	-25.285997	-3.146
         111	1	37	4	0.0	-4.156	-23.169	-5.016
         112	1	38	1	0.0	-2.1	-23.463	-1.116
         113	1	38	3	0.0	-1.314	-24.544	0.84
         114	1	38	4	0.0	-1.993	-22.033998	-0.595
         115	1	39	1	0.0	-3.709	-26.015	1.238
         116	1	39	3	0.0	-2.874	-25.99	3.49
         117	1	39	4	0.0	-2.912	-27.294998	1.088
         118	1	40	1	0.0	-3.896	-23.487	4.056
         119	1	40	3	0.0	-6.05	-22.485	3.777
         120	1	40	4	0.0	-2.998	-22.254	3.918
         121	1	41	1	0.0	-6.785	-22.789	6.391
         122	1	41	3	0.0	-5.689	-20.85	7.246
         123	1	41	4	0.0	-7.095	-23.612999	7.628
         124	1	42	1	0.0	-7.7630005	-19.157	6.588
         125	1	42	3	0.0	-9.741	-19.421	7.886
         126	1	42	4	0.0	-8.216	-18.437	5.314
         127	1	43	1	0.0	-9.091	-17.384	9.62
         128	1	43	3	0.0	-10.347	-16.027	8.061
         129	1	43	5	0.0	-8.311	-16.5318	10.314183
         130	1	44	1	0.0	-11.626	-14.616	9.987
         131	1	44	3	0.0	-11.774	-12.507	8.92
         132	1	44	5	0.0	-10.669	-13.499898	9.410819
         133	1	45	1	0.0	-9.129	-11.851001	9.314
         134	1	45	3	0.0	-7.794	-10.968	7.571
         135	1	45	4	0.0	-8.187	-11.358	10.409
         136	1	46	1	0.0	-7.676	-13.319	6.117
         137	1	46	3	0.0	-8.083	-13.44	3.807
         138	1	46	4	0.0	-6.905	-14.645001	6.113
         139	1	47	1	0.0	-10.8	-13.205	3.999
         140	1	47	3	0.0	-11.936	-11.399	5.095
         141	1	47	4	0.0	-11.619	-14.498001	4.018
         142	1	48	1	0.0	-13.328	-10.685	2.848
         143	1	48	3	0.0	-14.954	-12.4	3.303
         144	1	48	4	0.0	-13.583	-10.232	1.408
         145	1	49	1	0.0	-16.723	-10.848	4.553
         146	1	49	3	0.0	-17.5	-10.333	2.332
         147	1	49	4	0.0	-17.148	-9.764	5.56
         148	1	50	1	0.0	-19.705	-11.939	2.511
         149	1	50	3	0.0	-21.103	-10.079	3.074
         150	1	50	4	0.0	-20.668	-13.07	2.887
         151	1	51	1	0.0	-21.042	-9.035	0.529
         152	1	51	3	0.0	-20.994	-6.7109995	0.958
         153	1	51	5	0.0	-20.386	-8.089997	-0.16898517
         154	1	52	1	0.0	-18.29	-6.647	1.66
         155	1	52	3	0.0	-16.292	-7.465	0.633
         156	1	52	4	0.0	-17.879	-6.712	3.135
         157	1	53	1	0.0	-15.798	-5.14	-0.745
         158	1	53	3	0.0	-15.228	-3.142	0.493
         159	1	53	4	0.0	-16.236	-4.576	-2.095
         160	1	54	1	0.0	-12.521	-3.685	0.439
         161	1	54	3	0.0	-11.304999	-3.016	-1.527
         162	1	54	4	0.0	-11.383	-4.572	0.921
         163	1	55	1	0.0	-12.227	-0.412	-1.43
         164	1	55	3	0.0	-10.306	0.5	-2.445
         165	1	55	4	0.0	-13.279	0.71	-1.312
         166	1	56	1	0.0	-8.769	0.737	-0.285
         167	1	56	3	0.0	-6.911	0.093	-1.621
         168	1	56	4	0.0	-8.386	0.936	1.199
         169	1	57	1	0.0	-7.416	-2.597	-1.472
         170	1	57	3	0.0	-6.607	-2.706	-3.73
         171	1	57	4	0.0	-7.808	-3.991	-0.946
         172	1	58	1	0.0	-9.018	-2.057	-4.864
         173	1	58	3	0.0	-7.735	-0.868	-6.5
         174	1	58	4	0.0	-10.514	-1.935	-5.131
         175	1	59	1	0.0	-7.504	1.407	-5.024
         176	1	59	3	0.0	-5.305	1.616	-5.99
         177	1	59	4	0.0	-7.782	2.571	-4.06
         178	1	60	1	0.0	-4.085	0.022	-4.138
         179	1	60	3	0.0	-2.703	-0.575	-5.991
         180	1	60	4	0.0	-3.726	-0.686	-2.808
         181	1	61	1	0.0	-4.317	-2.603	-6.867
         182	1	61	3	0.0	-3.484	-1.948	-9.029
         183	1	61	4	0.0	-5.308	-3.783	-6.91
         184	1	62	1	0.0	-5.331	0.023	-9.417
         185	1	62	3	0.0	-3.493	1.071	-10.589
         186	1	62	4	0.0	-6.638	0.845	-9.395
         187	1	63	1	0.0	-2.476	2.297	-8.398
         188	1	63	3	0.0	-0.324	1.948	-9.426
         189	1	63	4	0.0	-2.365	3.038	-7.054
         190	1	64	1	0.0	-0.012	-0.621	-8.524
         191	1	64	3	0.0	1.098	-0.896	-10.654
         192	1	64	4	0.0	-0.042	-1.865	-7.64
         193	1	65	1	0.0	-1.153	-1.65	-12.001001
         194	1	65	3	0.0	-0.055	-0.581	-13.848
         195	1	65	4	0.0	-2.516	-2.279	-12.344999
         196	1	66	1	0.0	-1.031	1.895	-13.31
         197	1	66	3	0.0	1.046	2.825	-14.079
         198	1	66	4	0.0	-1.981	3.032	-12.941
         199	1	67	1	0.0	2.311	2.579	-11.652
         200	1	67	3	0.0	4.229	2.159	-13.042
         201	1	67	4	0.0	2.548	2.63	-10.134
         202	1	68	1	0.0	4.167	-0.542	-12.705
         203	1	68	3	0.0	5.094	-0.471	-14.909999
         204	1	68	4	0.0	3.957	-1.941	-12.090001
         205	1	69	1	0.0	2.694	-0.683	-16.19
         206	1	69	3	0.0	3.687	0.603	-17.95
         207	1	69	5	0.0	2.866	-1.468745	-16.102962
         208	1	70	1	0.0	3.079	3.005	-16.853
         209	1	70	3	0.0	5.143	3.73	-17.858
         210	1	70	5	0.0	2.758	3.8404393	-16.350842
         211	1	71	1	0.0	6.6449995	3.305	-15.655001
         212	1	71	3	0.0	8.565	2.695	-16.926
         213	1	71	4	0.0	7.112	3.334	-14.200999
         214	1	72	1	0.0	7.6649995	0.178	-17.56
         215	1	72	3	0.0	8.628	0.668	-19.704
         216	1	72	4	0.0	7.084	-1.212	-17.43
         217	1	73	1	0.0	6.4010005	1.877	-20.687
         218	1	73	3	0.0	7.826	3.375	-21.917997
         219	1	73	4	0.0	4.961	2.249	-21.02
         220	1	74	1	0.0	8.416	4.975	-19.758
         221	1	74	3	0.0	10.613	5.041	-20.725
         222	1	74	4	0.0	8.253	5.826	-18.494
         223	1	75	1	0.0	11.565	2.913	-19.289
         224	1	75	3	0.0	12.891001	2.536	-21.275
         225	1	75	4	0.0	11.789	1.863	-18.188
         226	1	76	1	0.0	10.987	1.067	-22.56
         227	1	76	3	0.0	11.782	2.042	-24.602
         228	1	76	4	0.0	9.842	0.098	-22.863
         229	1	77	1	0.0	10.286	4.324	-24.394
         230	1	77	3	0.0	12.099	5.469	-25.457
         231	1	77	4	0.0	9.134	5.261	-24.124
         232	1	78	1	0.0	13.478	5.946	-23.16
         233	1	78	3	0.0	15.492	5.475	-24.392998
         234	1	78	4	0.0	13.756	6.449	-21.733
         235	1	79	1	0.0	15.58	2.846	-23.746
         236	1	79	3	0.0	16.504	1.813	-25.664
         237	1	79	4	0.0	15.576	1.641	-22.816998
         238	1	80	1	0.0	14.269	2.107	-27.243
         239	1	80	3	0.0	14.747001	3.094	-29.352
         240	1	80	4	0.0	13.047	1.186	-27.359
         241	1	81	1	0.0	13.243	5.348	-28.94
         242	1	81	3	0.0	14.98	6.742	-28.026
         243	1	81	4	0.0	12.032	6.193	-28.576998
         244	1	82	1	0.0	16.2	7.17	-30.425
         245	1	82	3	0.0	16.927	9.419	-30.036
         246	1	82	4	0.0	16.792	6.8610005	-31.806
         247	1	83	1	0.0	14.406999	10.533	-30.172
         248	1	83	3	0.0	14.179	12.117	-28.412
         249	1	83	4	0.0	13.099	10.868	-30.876999
         250	1	84	1	0.0	14.404	10.219	-26.384
         251	1	84	3	0.0	15.808	10.067	-24.471
         252	1	84	4	0.0	13.341	9.336	-25.694
         253	1	85	1	0.0	18.11	9.646	-25.889002
         254	1	85	3	0.0	19.465	11.553001	-26.451
         255	1	85	4	0.0	19.001	8.803	-26.835001
         256	1	86	1	0.0	19.166	12.714	-23.947998
         257	1	86	3	0.0	19.04	11.642999	-21.816
         258	1	86	4	0.0	18.361	13.969	-24.346003
         259	1	87	1	0.0	20.212	13.704	-20.45
         260	1	87	3	0.0	18.809	13.194	-18.57
         261	1	87	4	0.0	21.18	14.823	-20.125
         262	1	88	1	0.0	16.778	14.86	-19.316
         263	1	88	3	0.0	15.35	13.262999	-18.232
         264	1	88	4	0.0	16.01	16.037	-19.892
         265	1	89	1	0.0	15.06	11.675	-20.4
         266	1	89	3	0.0	15.065999	9.638	-19.168
         267	1	89	4	0.0	14.774999	11.233	-21.826
         268	1	90	1	0.0	17.702	9.685	-18.55
         269	1	90	3	0.0	17.164	8.954	-16.334
         270	1	90	4	0.0	19.22	9.722	-18.714
         271	1	91	1	0.0	16.599	11.448	-15.366999
         272	1	91	3	0.0	14.750001	10.448	-14.214
         273	1	91	4	0.0	16.65	12.948	-15.053001
         274	1	92	1	0.0	13.028	10.591	-16.337
         275	1	92	3	0.0	12.06	8.475	-15.711
         276	1	92	4	0.0	12.264	11.090999	-17.548
         277	1	93	1	0.0	14.058	6.979	-16.85
         278	1	93	3	0.0	13.765001	5.532	-14.946999
         279	1	93	4	0.0	15.097	6.464	-17.831
         280	1	94	1	0.0	15.592	6.812	-13.396
         281	1	94	3	0.0	14.199	6.423	-11.478
         282	1	94	4	0.0	16.864	7.5130005	-12.921999
         283	1	95	1	0.0	12.528999	8.551	-11.982
         284	1	95	3	0.0	10.739	7.121	-11.236
         285	1	95	4	0.0	12.013999	9.924	-12.383
         286	1	96	1	0.0	10.349	5.916	-13.662
         287	1	96	3	0.0	9.912	3.835	-12.545
         288	1	96	4	0.0	10.206	5.682	-15.15
         289	1	97	1	0.0	12.544	3.224	-12.127
         290	1	97	3	0.0	11.776	2.406	-9.982
         291	1	97	4	0.0	14.049	3.013	-12.352
         292	1	98	1	0.0	12.035	4.793	-8.698
         293	1	98	3	0.0	10.104	4.072	-7.4730005
         294	1	98	4	0.0	12.532	6.163	-8.247
         295	1	99	1	0.0	8.299	5.029	-9.244
         296	1	99	3	0.0	6.807	3.183	-8.935
         297	1	99	4	0.0	7.584	5.97	-10.204
         298	1	100	1	0.0	8.214	1.458	-10.491
         299	1	100	3	0.0	7.813	-0.265	-8.856
         300	1	100	4	0.0	8.959	0.88	-11.689
         301	1	101	1	0.0	9.977	0.317	-7.324
         302	1	101	3	0.0	8.95	-0.102	-5.221
         303	1	101	4	0.0	11.418999	0.6	-6.939
         304	1	102	1	0.0	7.32	2.111	-5.291
         305	1	102	3	0.0	5.594	0.619	-4.568
         306	1	102	4	0.0	6.8889995	3.588	-5.414
         307	1	103	1	0.0	4.762	-0.017	-7.071
         308	1	103	3	0.0	4.169	-2.292	-6.6849995
         309	1	103	5	0.0	5.848	0.01792616	-7.0200095
         310	1	104	1	0.0	6.765	-3.211	-6.687
         311	1	104	3	0.0	6.914	-4.71	-4.861
         312	1	104	4	0.0	7.969	-3.547	-7.577
         313	1	105	1	0.0	8.107	-2.93	-3.141
         314	1	105	3	0.0	7.2829995	-2.765	-0.921
         315	1	105	4	0.0	9.594	-2.611	-3.043
         316	1	106	1	0.0	6.21	-0.244	-1.213
         317	1	106	3	0.0	4.184	-0.768	-0.065
         318	1	106	4	0.0	6.521	1.241	-1.422
         319	1	107	1	0.0	2.579	-0.566	-2.298
         320	1	107	3	0.0	0.98	-1.992	-1.301
         321	1	107	4	0.0	2.028	-0.153	-3.655
         322	1	108	1	0.0	2.178	-4.33	-1.679
         323	1	108	3	0.0	1.361	-5.008	0.465
         324	1	108	4	0.0	3.043	-5.406	-2.347
         325	1	109	1	0.0	3.342	-3.858	1.896
         326	1	109	3	0.0	1.833	-3.129	3.61
         327	1	109	4	0.0	4.752	-3.542	2.364
         328	1	110	1	0.0	0.908	-0.969	2.226
         329	1	110	3	0.0	-1.352	-1.428	2.888
         330	1	110	4	0.0	0.915	0.334	1.452
         331	1	111	1	0.0	-1.763	-3.299	0.919
         332	1	111	3	0.0	-2.985	-4.538	2.568
         333	1	111	4	0.0	-1.762	-4.002	-0.441
         334	1	112	1	0.0	-0.793	-5.796	3.601
         335	1	112	3	0.0	-1.578	-5.672	5.854
         336	1	112	4	0.0	0.524	-6.552	3.702
         337	1	113	1	0.0	-1.025	-3.023	6.179
         338	1	113	3	0.0	-2.982	-2.372	7.386
         339	1	113	4	0.0	-0.177	-1.753	6.212
         340	1	114	1	0.0	-4.642	-2.381	5.188
         341	1	114	3	0.0	-6.444	-3.711	6.034
         342	1	114	4	0.0	-5.048	-1.57	3.954
         343	1	115	1	0.0	-5.701	-6.009	4.683
         344	1	115	3	0.0	-6.399	-7.583	6.339
         345	1	115	4	0.0	-5.22	-6.945	3.592
         346	1	116	1	0.0	-4.461	-6.84	8.186
         347	1	116	3	0.0	-4.37	-5.974	10.399
         348	1	116	4	0.0	-3.02	-7.333	8.398
         349	1	117	1	0.0	-6.161	-3.832	9.874
         350	1	117	3	0.0	-5.115	-2.917	11.826999
         351	1	117	4	0.0	-7.17	-4.446	10.844
         352	1	118	1	0.0	-2.801	-2.099	10.391
         353	1	118	3	0.0	-1.622	-2.411	12.472
         354	1	118	4	0.0	-3.065	-0.682	10.875
         355	1	119	1	0.0	-1.255	-5.148	12.028999
         356	1	119	3	0.0	-0.563	-6.418	10.114
         357	1	119	4	0.0	-2.13	-6.213	12.674
         358	1	120	1	0.0	2.134	-5.898	10.489
         359	1	120	3	0.0	2.663	-8.06	11.331
         360	1	120	4	0.0	3.438	-5.274	10.993
         361	1	121	1	0.0	1.943	-9.449	9.166
         362	1	121	3	0.0	3.511	-11.244	9.264
         363	1	121	4	0.0	1.018	-9.728	7.972
         364	1	122	1	0.0	5.561	-9.804	8.107
         365	1	122	3	0.0	5.964	-9.282	10.431
         366	1	122	4	0.0	6.214	-8.971	7.008
         367	1	123	1	0.0	8.474	-10.27	10.545
         368	1	123	3	0.0	8.759	-7.939	10.025
         369	1	123	4	0.0	9.698	-11.099	10.151
         370	1	124	1	0.0	9.531	-7.3029995	12.596
         371	1	124	3	0.0	10.794	-5.378	11.943001
         372	1	124	4	0.0	9.648	-7.3429995	14.123
         373	1	125	1	0.0	12.901	-6.7829995	10.933
         374	1	125	3	0.0	13.45	-5.4470005	9.032
         375	1	125	4	0.0	14.065	-7.7769995	10.888
         376	1	126	1	0.0	11.147	-6.003	7.628
         377	1	126	3	0.0	10.06	-4.103	6.713
         378	1	126	4	0.0	10.312	-7.002	6.819
         379	1	127	1	0.0	9.396	-2.965	9.087
         380	1	127	3	0.0	9.845	-0.872	8.033
         381	1	127	4	0.0	8.749	-2.875	10.477
         382	1	128	1	0.0	12.332999	-0.485	8.939
         383	1	128	3	0.0	13.107	0.433	6.8750005
         384	1	128	4	0.0	13.533	-0.554	9.87
         385	1	129	1	0.0	13.193	-1.933	5.52
         386	1	129	3	0.0	12.403	-0.647	3.648
         387	1	129	4	0.0	13.446001	-3.399	5.186
         388	1	130	1	0.0	9.743	-1.01	4.208
         389	1	130	3	0.0	9.508	1.22	3.354
         390	1	130	4	0.0	8.425	-1.604	4.707
         391	1	131	1	0.0	9.943	2.468	5.732
         392	1	131	3	0.0	11.044	4.138	4.392
         393	1	131	4	0.0	9.962	2.793	7.241
         394	1	132	1	0.0	13.465	2.851	4.345
         395	1	132	3	0.0	13.733	3.821	2.181
         396	1	132	4	0.0	14.657	2.003	4.746
         397	1	133	1	0.0	12.415	1.832	0.86
         398	1	133	3	0.0	11.507	3.462	-0.649
         399	1	133	4	0.0	11.954	0.436	0.417
         400	1	134	1	0.0	9.433	4.188	1.004
         401	1	134	3	0.0	9.871	6.364	0.094
         402	1	134	4	0.0	8.27	4.092	2.012
         403	1	135	1	0.0	11.553999	7.12	2.141
         404	1	135	3	0.0	12.819	8.318	0.509
         405	1	135	4	0.0	12.116	7.3090005	3.555
         406	1	136	1	0.0	14.307	6.1770005	-0.314
         407	1	136	3	0.0	14.214	7.3090005	-2.418
         408	1	136	4	0.0	15.031	4.842	-0.356
         409	1	137	1	0.0	12.026001	6.035	-3.304
         410	1	137	3	0.0	11.261	7.9990005	-4.443
         411	1	137	4	0.0	11.145001	4.86	-3.702
         412	1	138	1	0.0	9.984	9.068	-2.284
         413	1	138	3	0.0	10.734	11.261	-2.89
         414	1	138	4	0.0	9.075	9.185	-1.058
         415	1	139	1	0.0	13.206	10.995	-1.751
         416	1	139	3	0.0	14.211	12.045	-3.648
         417	1	139	4	0.0	14.225001	10.734	-0.654
         418	1	140	1	0.0	14.620999	9.735	-5.031
         419	1	140	3	0.0	14.266	10.943001	-7.061
         420	1	140	4	0.0	14.923	8.297	-5.396
         421	1	141	1	0.0	11.545	10.991	-6.8429995
         422	1	141	3	0.0	11.85	13.113	-7.906
         423	1	141	4	0.0	10.098	10.615	-6.543
         424	1	142	1	0.0	11.851001	14.559	-5.602
         425	1	142	3	0.0	13.458999	16.067	-6.534
         426	1	142	4	0.0	11.373	15.119	-4.246
         427	1	143	1	0.0	15.625	14.558	-5.968
         428	1	143	3	0.0	16.651	15.287001	-8.012
         429	1	143	4	0.0	16.637	13.696	-5.205
         430	1	144	1	0.0	15.317999	13.513	-9.607
         431	1	144	3	0.0	15.148	15.292	-11.194
         432	1	144	4	0.0	14.745	12.226	-10.174
         433	1	145	1	0.0	12.841	16.338	-10.148
         434	1	145	3	0.0	13.716	18.517	-10.702
         435	1	145	4	0.0	11.446001	16.461	-9.536
         436	1	146	1	0.0	15.179	18.764	-8.413
         437	1	146	3	0.0	16.847	19.855	-9.759
         438	1	146	4	0.0	15.607	18.731	-6.958
         439	1	147	1	0.0	18.077	17.513	-10.543
         440	1	147	3	0.0	18.473	18.545	-12.672
         441	1	147	4	0.0	18.676	16.111	-10.529
         442	1	148	1	0.0	15.994	17.949	-13.681
         443	1	148	3	0.0	16.112	20.104	-14.734999
         444	1	148	4	0.0	14.721	17.159	-14.06
         445	1	149	1	0.0	15.072	21.473	-12.61
         446	1	149	3	0.0	16.532	23.227001	-13.353
         447	1	149	4	0.0	14.248	21.858	-11.388
         448	1	150	1	0.0	18.683	22.379	-11.892
         449	1	150	3	0.0	20.116	23.103003	-13.663
         450	1	150	4	0.0	19.544	21.834	-10.750001
         451	1	151	1	0.0	19.817	20.824	-15.181
         452	1	151	3	0.0	19.907	22.264997	-17.07
         453	1	151	4	0.0	19.676	19.364	-15.588
         454	1	152	1	0.0	17.229	22.839	-17.089
         455	1	152	3	0.0	17.735	25.054	-17.782
         456	1	152	4	0.0	15.715	22.677	-17.035
         457	1	153	1	0.0	18.203	26.021997	-15.277999
         458	1	153	3	0.0	19.904	27.401	-16.277
         459	1	153	4	0.0	18.086	26.297	-13.777999
         460	1	154	1	0.0	21.849998	25.508999	-16.086
         461	1	154	3	0.0	22.632998	26.243	-18.244
         462	1	154	4	0.0	22.792	24.459	-15.467
         463	1	155	1	0.0	20.946	24.614	-19.668
         464	1	155	3	0.0	20.71	26.238	-21.4
         465	1	155	4	0.0	20.109	23.418	-20.111
         466	1	156	1	0.0	18.987	27.87	-20.011
         467	1	156	3	0.0	20.136	29.908	-20.561
         468	1	156	4	0.0	17.587	28.104	-19.41
         469	1	157	1	0.0	21.438	30.122	-18.153
         470	1	157	3	0.0	23.199	31.116	-19.421
         471	1	157	4	0.0	21.707	30.035	-16.643
         472	1	158	1	0.0	24.593	28.765	-19.793
         473	1	158	3	0.0	24.849	26.549997	-20.664
         474	1	158	4	0.0	25.733997	28.408	-18.839
         475	1	159	1	0.0	23.722	27.06	-23.077997
         476	1	159	3	0.0	25.101	25.442	-24.197
         477	1	159	4	0.0	22.813997	27.766	-24.080997
         478	1	160	1	0.0	27.282	27.072	-24.43
         479	1	160	3	0.0	28.581	25.12	-23.946
         480	1	160	4	0.0	28.073002	28.336	-24.804
         481	1	161	1	0.0	28.861	25.691	-21.264
         482	1	161	3	0.0	28.792	23.364002	-20.718
         483	1	161	4	0.0	29.104998	26.475998	-19.987
         484	1	162	1	0.0	26.044	23.208998	-20.714
         485	1	162	3	0.0	26.231	21.04	-21.698
         486	1	162	4	0.0	24.578	23.529	-20.435
         487	1	163	1	0.0	26.307001	21.936	-24.285
         488	1	163	3	0.0	28.007	20.473	-25.117
         489	1	163	4	0.0	25.865002	22.669	-25.547
         490	1	164	1	0.0	30.074	21.802	-23.875
         491	1	164	3	0.0	31.054	19.735	-23.101
         492	1	164	4	0.0	30.983	23.003	-23.639
         493	1	165	1	0.0	30.144	20.036	-20.502
         494	1	165	3	0.0	29.549997	17.877	-19.686
         495	1	165	4	0.0	30.179	20.824	-19.195
         496	1	166	1	0.0	26.980999	17.916	-20.686
         497	1	166	3	0.0	27.649	16.873	-22.73
         498	1	166	4	0.0	25.57	18.467	-20.953
         499	1	167	1	0.0	27.347	14.296	-21.738003
         500	1	167	3	0.0	25.934	13.394001	-20.009
         501	1	167	4	0.0	28.819	13.908	-21.786
         502	1	168	1	0.0	25.834	10.895	-21.107
         503	1	168	3	0.0	25.762	9.928	-18.914
         504	1	168	4	0.0	25.728	9.772	-22.14
         505	1	169	1	0.0	28.468	9.982	-18.569
         506	1	169	3	0.0	28.06	10.45	-16.256
         507	1	169	4	0.0	29.976	9.869	-18.839
         508	1	170	1	0.0	27.832	13.185999	-16.603
         509	1	170	3	0.0	26.137999	13.271	-14.923
         510	1	170	4	0.0	28.1	14.601	-17.087
         511	1	171	1	0.0	24.109	12.428	-16.579
         512	1	171	3	0.0	23.227001	11.224	-14.691
         513	1	171	4	0.0	23.207	12.284	-17.796
         514	1	172	1	0.0	24.732	8.976	-15.175
         515	1	172	3	0.0	24.94	8.739	-12.792999
         516	1	172	4	0.0	25.394	7.802	-15.915
         517	1	173	1	0.0	27.017	10.52	-12.572
         518	1	173	3	0.0	26.057999	11.204	-10.493
         519	1	173	4	0.0	28.293	11.325	-12.832999
         520	1	174	1	0.0	24.255	12.928	-11.587
         521	1	174	3	0.0	22.701	12.228	-9.898
         522	1	174	4	0.0	23.631002	13.993	-12.461999
         523	1	175	1	0.0	21.766	10.062	-11.304
         524	1	175	3	0.0	21.677	8.994	-9.147
         525	1	175	4	0.0	21.285	9.161	-12.458999
         526	1	176	1	0.0	24.303	8.19	-9.164
         527	1	176	3	0.0	24.296	8.536	-6.804
         528	1	176	4	0.0	25.653997	7.699	-9.627
         529	1	177	1	0.0	24.73	11.243	-6.923
         530	1	177	3	0.0	23.224	11.4	-5.057
         531	1	177	4	0.0	25.33	12.599	-7.3489995
         532	1	178	1	0.0	20.949	11.556999	-6.5850005
         533	1	178	3	0.0	20.016	10.388	-4.697
         534	1	178	4	0.0	19.951	11.846	-7.728
         535	1	179	1	0.0	20.607	7.905	-5.609
         536	1	179	3	0.0	21.054	7.164	-3.377
         537	1	179	4	0.0	20.777	6.675	-6.526
         538	1	180	1	0.0	23.593	8.208	-3.257
         539	1	180	3	0.0	23.14	8.725	-0.959
         540	1	180	4	0.0	25.016	8.596	-3.636
         541	1	181	1	0.0	22.007	11.159	-1.484
         542	1	181	3	0.0	20.46	10.606	0.279
         543	1	181	4	0.0	21.782001	12.571	-2.063
         544	1	182	1	0.0	18.667	9.358	-1.36
         545	1	182	3	0.0	18.089	7.827	0.377
         546	1	182	4	0.0	17.788	9.041	-2.563
         547	1	183	1	0.0	20.287	6.255	0.062
         548	1	183	3	0.0	20.534	6.221	2.452
         549	1	183	4	0.0	21.265	5.312	-0.667
         550	1	184	1	0.0	22.231	8.358	2.55
         551	1	184	3	0.0	21.421	8.953	4.713
         552	1	184	5	0.0	21.648	7.976121	2.9518127
         553	1	185	1	0.0	19.044	10.01	3.809
         554	1	185	3	0.0	17.999	8.921	5.687
         555	1	185	4	0.0	18.082	10.895	2.999
         556	1	186	1	0.0	17.252	6.688	4.224
         557	1	186	3	0.0	17.505	4.556	5.262
         558	1	186	4	0.0	16.427	6.069	3.114
         559	1	187	1	0.0	20.166	4.845	5.852
         560	1	187	3	0.0	19.709	3.715	7.905
         561	1	187	4	0.0	21.656	5.075	5.554
         562	1	188	1	0.0	19.564	5.867	9.515
         563	1	188	3	0.0	18.039	4.965	11.108999
         564	1	188	4	0.0	19.694	7.31	10.016
         565	1	189	1	0.0	15.957	4.624	9.333
         566	1	189	3	0.0	15.567	2.669	10.654
         567	1	189	4	0.0	14.924999	4.982	8.268
         568	1	190	1	0.0	16.742	0.882	9.087
         569	1	190	3	0.0	17.676	-0.408	10.841
         570	1	190	4	0.0	17.101	0.198	7.761
         571	1	191	1	0.0	19.822	1.193	11.251
         572	1	191	3	0.0	19.41	0.521	13.528999
         573	1	191	4	0.0	21.056	2.077	10.986001
         574	1	192	1	0.0	18.063	2.796	14.217
         575	1	192	3	0.0	16.525	1.516	15.521
         576	1	192	4	0.0	17.807	4.302	14.379001
         577	1	193	1	0.0	14.884999	0.874	13.435
         578	1	193	3	0.0	14.369001	-1.183	14.498001
         579	1	193	5	0.0	16.066	0.9215195	12.457972
         580	1	194	1	0.0	16.689	-2.436	13.717
         581	1	194	3	0.0	17.404	-3.542	15.691
         582	1	194	4	0.0	17.615	-3.038	12.691
         583	1	195	1	0.0	18.354	-1.29	16.936
         584	1	195	3	0.0	17.372	-1.684	19.054
         585	1	195	4	0.0	19.423	-0.212	17.041
         586	1	196	1	0.0	15.216	0.026	18.615
         587	1	196	3	0.0	13.559	0.787	17.041
         588	1	196	4	0.0	15.356	1.415	19.232
         589	1	197	1	0.0	11.965	-1.435	17.371
         590	1	197	3	0.0	9.743	-0.635	17.183
         591	1	197	4	0.0	11.619	-2.927	17.453
         592	1	198	1	0.0	9.873	0.985	19.376
         593	1	198	3	0.0	8.73	2.944	18.671
         594	1	198	4	0.0	10.085	1.337	20.857
         595	1	199	1	0.0	10.703	3.821	16.968
         596	1	199	3	0.0	9.536	4.626	15.068
         597	1	199	4	0.0	12.115001	4.306	16.688
         598	1	200	1	0.0	9.128	2.114	13.935
         599	1	200	3	0.0	7.278	0.884	13.103001
         600	1	200	4	0.0	10.064	1.37	12.969
         601	1	201	1	0.0	6.132	0.459	15.608
         602	1	201	3	0.0	5.76	1.978	17.431
         603	1	201	4	0.0	6.37	-0.916	16.235
         604	1	202	1	0.0	2.986	1.798	17.202
         605	1	202	3	0.0	1.593	-0.17	17.123
         606	1	202	4	0.0	2.06	2.778	16.462
         607	1	203	1	0.0	1.524	-0.403	19.948
         608	1	203	3	0.0	1.422	-2.787	19.783
         609	1	203	4	0.0	0.001	-0.425	19.792
         610	1	204	1	0.0	4.128	-3.043	18.937
         611	1	204	3	0.0	3.815	-5.084	17.744
         612	1	204	4	0.0	4.38	-3.886	20.21
         613	1	205	1	0.0	1.963	-4.045	15.965
         614	1	205	3	0.0	2.491	-3.859	13.659
         615	1	205	4	0.0	0.498	-4.347	16.295
         616	1	206	1	0.0	1.495	-1.277	13.395
         617	1	206	3	0.0	3.478	-0.018	13.873
         618	1	206	4	0.0	0.431	-0.198	13.546
         619	1	207	1	0.0	4.543	-0.397	11.328
         620	1	207	3	0.0	4.087	1.372	9.751
         621	1	207	4	0.0	5.036	-1.253	10.167
         622	1	208	1	0.0	4.503	3.409	11.608999
         623	1	208	3	0.0	5.969	3.865	13.438
         624	1	208	4	0.0	3.184	3.983	12.162
         625	1	209	1	0.0	7.48	5.683	12.061
         626	1	209	3	0.0	6.136	7.569	12.688
         627	1	209	4	0.0	8.279	6.37	10.952
         628	1	210	1	0.0	6.891	7.462	15.35
         629	1	210	3	0.0	7.6110005	9.085	16.924
         630	1	210	4	0.0	6.244	6.5910006	16.439
         631	1	211	1	0.0	10.144	9.333	15.915
         632	1	211	3	0.0	10.068	10.896	14.115001
         633	1	211	4	0.0	11.533	8.807	15.556999
         634	1	212	1	0.0	9.348	13.056	15.586
         635	1	212	3	0.0	10.469	14.637	14.177
         636	1	212	4	0.0	8.722	13.824	16.741
         637	1	213	1	0.0	12.975	13.988	15.010999
         638	1	213	3	0.0	13.559	14.354001	12.722999
         639	1	213	4	0.0	14.156	13.657	15.903
         640	1	214	1	0.0	13.314999	11.734999	11.976
         641	1	214	3	0.0	12.45	12.313	9.841
         642	1	214	4	0.0	13.473999	10.222	11.996