ITEM: TIMESTEP
0
ITEM: NUMBER OF ATOMS
2694
ITEM: BOX BOUNDS ss ss ss
-42.02 31.094
-56.537 55.677
-56.816 69.345
ITEM: ATOMS id type xs ys zs
1 1 0.599434 0.399478 0.557486
2 3 0.596124 0.378001 0.55659
3 4 0.618719 0.404602 0.557177
4 1 0.601636 0.377725 0.534864
5 3 0.629702 0.386039 0.528523
6 4 0.584936 0.377306 0.527263
7 1 0.639166 0.365855 0.517466
8 3 0.621509 0.375613 0.50369
9 4 0.645595 0.353022 0.517236
10 1 0.648617 0.373625 0.488867
11 3 0.627199 0.37056 0.474743
12 4 0.667478 0.374142 0.483755
13 1 0.622179 0.346704 0.478777
14 3 0.592431 0.351168 0.471992
15 4 0.625092 0.333577 0.482241
16 1 0.577523 0.356061 0.491087
17 3 0.55858 0.371718 0.484619
18 4 0.57212 0.354679 0.502715
19 1 0.585715 0.388454 0.483676
20 3 0.570889 0.394781 0.467625
21 4 0.602183 0.395922 0.486799
22 1 0.591911 0.380594 0.454673
23 3 0.564762 0.377342 0.444337
24 4 0.608707 0.374641 0.449806
25 1 0.552138 0.359198 0.456853
26 3 0.523388 0.367681 0.45136
27 4 0.550291 0.348682 0.464399
28 1 0.520557 0.383054 0.468092
29 3 0.506716 0.397384 0.456647
30 4 0.521227 0.388205 0.479316
31 1 0.538625 0.405645 0.448292
32 3 0.520666 0.40765 0.432535
33 4 0.55858 0.40928 0.446953
34 1 0.527409 0.384988 0.425377
35 3 0.497319 0.383277 0.418442
36 4 0.537708 0.37375 0.422381
37 1 0.481112 0.377368 0.437425
38 3 0.457067 0.389559 0.430212
39 4 0.47761 0.371807 0.448324
40 1 0.468228 0.40986 0.439716
41 3 0.458927 0.421507 0.424965
42 4 0.474752 0.418504 0.448308
43 1 0.48899 0.417176 0.412877
44 3 0.468392 0.417149 0.398094
45 4 0.508931 0.415572 0.409722
46 1 0.461444 0.393382 0.399069
47 3 0.430164 0.397802 0.394567
48 4 0.464521 0.379703 0.399894
49 1 0.420152 0.403381 0.414851
50 3 0.399732 0.417622 0.40721
51 5 0.43796 0.406397 0.423031
52 1 0.42591 0.434527 0.404016
53 3 0.41066 0.439303 0.387774
54 4 0.442131 0.442868 0.405759
55 1 0.428728 0.422746 0.37602
56 3 0.401387 0.41878 0.366112
57 4 0.444169 0.415314 0.371287
58 1 0.386547 0.404032 0.3811
59 3 0.357045 0.412916 0.37789
60 4 0.38522 0.393498 0.388908
61 1 0.362844 0.431853 0.391016
62 3 0.346336 0.443483 0.378112
63 4 0.368329 0.439883 0.400243
64 1 0.375332 0.44662 0.365057
65 3 0.358686 0.44465 0.348824
66 4 0.394562 0.44932 0.36115
67 1 0.353516 0.420527 0.350774
68 3 0.326654 0.408496 0.350409
69 4 0.36491 0.409583 0.347762
70 1 0.311199 0.419056 0.368925
71 3 0.294649 0.400832 0.370741
72 4 0.295361 0.423138 0.361911
73 1 0.324165 0.388739 0.379872
74 3 0.339443 0.396189 0.395328
75 4 0.338253 0.381138 0.373776
76 1 0.321334 0.38112 0.409057
77 3 0.351178 0.371692 0.407083
78 4 0.307533 0.372565 0.413931
79 1 0.364226 0.381004 0.425908
80 3 0.383182 0.364527 0.43045
81 4 0.368219 0.391047 0.433835
82 1 0.356252 0.352131 0.440984
83 3 0.374566 0.334949 0.438004
84 4 0.338704 0.348673 0.446818
85 1 0.36428 0.329986 0.418156
86 3 0.394644 0.323935 0.414011
87 4 0.351602 0.329085 0.408446
88 1 0.4072 0.346623 0.409952
89 3 0.435019 0.339601 0.417863
90 4 0.408143 0.359643 0.406029
91 1 0.424433 0.344556 0.438091
92 3 0.439888 0.326947 0.443917
93 4 0.416145 0.350776 0.447737
94 1 0.412657 0.311797 0.438242
95 3 0.434609 0.297423 0.43259
96 4 0.393413 0.306397 0.437164
97 1 0.439423 0.307038 0.412845
98 3 0.471032 0.301629 0.415342
99 4 0.435019 0.312385 0.401852
100 1 0.480756 0.322963 0.424061
101 3 0.50171 0.311548 0.43477
102 4 0.482124 0.336438 0.426138
103 1 0.475914 0.30539 0.449545
104 3 0.492108 0.286943 0.450456
105 4 0.459488 0.305497 0.45694
106 1 0.47467 0.276614 0.433525
107 3 0.500766 0.266785 0.426669
108 4 0.459214 0.27256 0.426249
109 1 0.516372 0.286524 0.417958
110 3 0.544068 0.278495 0.425409
111 4 0.517876 0.29736 0.410586
112 1 0.545997 0.29474 0.441499
113 3 0.556747 0.285107 0.457003
114 4 0.54746 0.307475 0.445629
115 1 0.52399 0.271998 0.460158
116 3 0.53541 0.272221 0.478008
117 4 0.534891 0.260591 0.458969
118 1 0.521432 0.294527 0.482495
119 3 0.491971 0.303456 0.480283
120 4 0.533714 0.305514 0.481401
121 1 0.481919 0.300747 0.501003
122 3 0.496909 0.318026 0.50778
123 4 0.477679 0.293404 0.510808
124 1 0.468542 0.333114 0.502564
125 3 0.441489 0.330761 0.512853
126 4 0.462346 0.33953 0.492466
127 1 0.450379 0.348914 0.526597
128 3 0.4332 0.361007 0.51424
129 5 0.461047 0.356508 0.532099
130 1 0.415707 0.373581 0.529506
131 3 0.413683 0.392375 0.521049
132 5 0.428796 0.383527 0.524939
133 1 0.449859 0.398221 0.524171
134 3 0.468118 0.40609 0.510356
135 4 0.462743 0.402615 0.532851
136 1 0.469732 0.385139 0.498831
137 3 0.464166 0.384061 0.480521
138 4 0.480277 0.373322 0.498799
139 1 0.427004 0.386155 0.482043
140 3 0.411467 0.402249 0.49073
141 4 0.415803 0.374632 0.482193
142 1 0.392428 0.408612 0.47292
143 3 0.370189 0.393329 0.476526
144 4 0.388941 0.412649 0.461506
145 1 0.345994 0.40716 0.486434
146 3 0.335367 0.411749 0.46883
147 4 0.340181 0.41682 0.494416
148 1 0.305208 0.397437 0.470248
149 3 0.286087 0.414013 0.474711
150 4 0.292037 0.387358 0.473229
151 1 0.286922 0.423316 0.454538
152 3 0.287578 0.444027 0.457939
153 5 0.295894 0.431738 0.449006
154 1 0.324562 0.444597 0.463503
155 3 0.351889 0.437307 0.455363
156 4 0.330183 0.444018 0.475194
157 1 0.358645 0.458027 0.44444
158 3 0.366441 0.475832 0.454253
159 4 0.352655 0.463053 0.433739
160 1 0.403466 0.470993 0.453825
161 3 0.420097 0.476955 0.438242
162 4 0.419031 0.463088 0.457645
163 1 0.407487 0.50016 0.43901
164 3 0.433761 0.508288 0.430965
165 4 0.393098 0.510159 0.439946
166 1 0.454783 0.5104 0.448086
167 3 0.480195 0.504661 0.437497
168 4 0.460021 0.512173 0.459849
169 1 0.473288 0.480689 0.438678
170 3 0.484353 0.479717 0.42078
171 4 0.467927 0.468266 0.442847
172 1 0.451377 0.485501 0.411791
173 3 0.468925 0.496097 0.398824
174 4 0.430916 0.486588 0.409675
175 1 0.472085 0.516371 0.410523
176 3 0.502161 0.518233 0.402866
177 4 0.468282 0.526744 0.418164
178 1 0.518847 0.504028 0.417546
179 3 0.537749 0.498708 0.402858
180 4 0.523757 0.497719 0.428088
181 1 0.515674 0.480635 0.395915
182 3 0.527067 0.486472 0.378778
183 4 0.50212 0.47012 0.395574
184 1 0.501805 0.504037 0.375702
185 3 0.526944 0.513376 0.366413
186 4 0.483929 0.511362 0.375877
187 1 0.540854 0.524302 0.383779
188 3 0.570287 0.521192 0.375631
189 4 0.542372 0.530905 0.394433
190 1 0.574555 0.498298 0.382781
191 3 0.589737 0.495847 0.365898
192 4 0.574144 0.487212 0.389788
193 1 0.558949 0.489128 0.355221
194 3 0.573967 0.498654 0.340581
195 4 0.540307 0.483523 0.352494
196 1 0.560618 0.520719 0.344845
197 3 0.589025 0.529007 0.33875
198 4 0.547624 0.530852 0.34777
199 1 0.606327 0.526815 0.357987
200 3 0.63256 0.523072 0.346969
201 4 0.609569 0.527269 0.370019
202 1 0.631712 0.499002 0.349641
203 3 0.644391 0.499635 0.332163
204 4 0.62884 0.486535 0.354515
205 1 0.611566 0.497745 0.322017
206 3 0.625147 0.509206 0.308067
207 5 0.613918 0.490743 0.322707
208 1 0.616831 0.530611 0.316762
209 3 0.645061 0.537072 0.308796
210 5 0.612441 0.538056 0.320742
211 1 0.665604 0.533285 0.326258
212 3 0.691865 0.527849 0.316183
213 4 0.671992 0.533543 0.337783
214 1 0.679555 0.505418 0.311158
215 3 0.692726 0.509785 0.294164
216 4 0.671609 0.493031 0.312188
217 1 0.662267 0.520559 0.286372
218 3 0.681757 0.533908 0.276615
219 4 0.642572 0.523874 0.283733
220 1 0.689827 0.548167 0.293736
221 3 0.719876 0.548755 0.286071
222 4 0.687597 0.555751 0.303755
223 1 0.732897 0.529791 0.297453
224 3 0.751033 0.526432 0.281711
225 4 0.73596 0.520434 0.30618
226 1 0.724991 0.513341 0.271526
227 3 0.735865 0.522029 0.25534
228 4 0.709331 0.504705 0.269124
229 1 0.715403 0.542365 0.256989
230 3 0.7402 0.552569 0.248563
231 4 0.699647 0.550716 0.259129
232 1 0.759061 0.55682 0.26677
233 3 0.786607 0.552623 0.256997
234 4 0.762863 0.561303 0.278081
235 1 0.787811 0.529194 0.262125
236 3 0.800449 0.519989 0.246923
237 4 0.787756 0.518456 0.269489
238 1 0.76988 0.522609 0.234407
239 3 0.776418 0.531404 0.21769
240 4 0.753166 0.514401 0.233487
241 1 0.755847 0.551491 0.220956
242 3 0.779604 0.563914 0.2282
243 4 0.739284 0.559021 0.223833
244 1 0.796291 0.567728 0.209185
245 3 0.806234 0.58777 0.212268
246 4 0.804388 0.564974 0.198239
247 1 0.771767 0.597697 0.21119
248 3 0.768649 0.611813 0.225141
249 4 0.753878 0.600683 0.205602
250 1 0.771726 0.594899 0.241216
251 3 0.790929 0.593544 0.256379
252 4 0.757187 0.58703 0.246685
253 1 0.822414 0.589793 0.245139
254 3 0.840947 0.606787 0.240685
255 4 0.834601 0.58228 0.237641
256 1 0.836858 0.617133 0.260524
257 3 0.835134 0.607589 0.277423
258 4 0.825847 0.628317 0.25737
259 1 0.851164 0.625956 0.288251
260 3 0.831975 0.621411 0.303152
261 4 0.864404 0.635928 0.290827
262 1 0.804196 0.636258 0.297239
263 3 0.784665 0.622026 0.305831
264 4 0.793692 0.646746 0.292674
265 1 0.780699 0.607874 0.288647
266 3 0.780781 0.589721 0.298412
267 4 0.776801 0.603935 0.277344
268 1 0.816834 0.59014 0.303311
269 3 0.809476 0.583626 0.320876
270 4 0.837596 0.59047 0.302011
271 1 0.801748 0.605851 0.328541
272 3 0.776459 0.59694 0.33768
273 4 0.802445 0.619219 0.331029
274 1 0.752906 0.598214 0.320852
275 3 0.739667 0.579357 0.325814
276 4 0.742457 0.60267 0.311253
277 1 0.766994 0.566026 0.316786
278 3 0.762987 0.553131 0.33187
279 4 0.781205 0.561436 0.30901
280 1 0.787975 0.564537 0.344163
281 3 0.768923 0.561071 0.359366
282 4 0.805372 0.570784 0.347921
283 1 0.746081 0.580035 0.355371
284 3 0.721599 0.567291 0.361284
285 4 0.739038 0.59227 0.352193
286 1 0.716265 0.556553 0.342055
287 3 0.710288 0.538008 0.350909
288 4 0.714309 0.554467 0.330261
289 1 0.746287 0.532563 0.354222
290 3 0.735782 0.525273 0.371224
291 4 0.766871 0.530682 0.352439
292 1 0.739325 0.546545 0.381402
293 3 0.712914 0.54012 0.391111
294 4 0.746122 0.558754 0.384976
295 1 0.688227 0.548648 0.377074
296 3 0.66782 0.532197 0.379523
297 4 0.678447 0.557034 0.369464
298 1 0.687064 0.516825 0.36719
299 3 0.681579 0.50147 0.380149
300 4 0.697254 0.511674 0.357694
301 1 0.711177 0.506657 0.392292
302 3 0.697131 0.502923 0.408962
303 4 0.7309 0.509179 0.395344
304 1 0.674837 0.522644 0.408407
305 3 0.65123 0.509348 0.414137
306 4 0.668942 0.535807 0.407432
307 1 0.63985 0.50368 0.394298
308 3 0.631739 0.483407 0.397357
309 5 0.654704 0.503992 0.394702
310 1 0.667246 0.475217 0.397341
311 3 0.669284 0.461859 0.411815
312 4 0.683713 0.472223 0.390287
313 1 0.685601 0.477721 0.425448
314 3 0.67433 0.479192 0.443045
315 4 0.705939 0.480564 0.426225
316 1 0.659655 0.501658 0.44073
317 3 0.631945 0.496988 0.44983
318 4 0.663908 0.514891 0.439074
319 1 0.609993 0.498788 0.43213
320 3 0.588123 0.48608 0.440033
321 4 0.602456 0.502468 0.421374
322 1 0.604508 0.465245 0.437037
323 3 0.593334 0.459203 0.454031
324 4 0.616339 0.455656 0.431742
325 1 0.620428 0.469451 0.465374
326 3 0.599789 0.475948 0.478959
327 4 0.639713 0.472267 0.469083
328 1 0.587138 0.495197 0.467989
329 3 0.556227 0.491106 0.473237
330 4 0.587234 0.506808 0.461854
331 1 0.550606 0.474433 0.45763
332 3 0.533892 0.463391 0.4707
333 4 0.55062 0.468168 0.44685
334 1 0.563873 0.452181 0.478888
335 3 0.553136 0.453286 0.496746
336 4 0.581886 0.445444 0.479689
337 1 0.5607 0.476892 0.499322
338 3 0.533933 0.482694 0.508889
339 4 0.572298 0.48821 0.499584
340 1 0.511229 0.482614 0.491467
341 3 0.486583 0.470761 0.498173
342 4 0.505676 0.489841 0.481686
343 1 0.496745 0.450282 0.487464
344 3 0.487198 0.436256 0.500591
345 4 0.503324 0.441941 0.478817
346 1 0.513705 0.442877 0.515231
347 3 0.514949 0.450594 0.532772
348 4 0.533414 0.438484 0.516911
349 1 0.490453 0.469683 0.52861
350 3 0.50476 0.477837 0.54409
351 4 0.476653 0.464211 0.536299
352 1 0.536409 0.485127 0.532708
353 3 0.552534 0.482346 0.549203
354 4 0.532798 0.497754 0.536545
355 1 0.557554 0.457955 0.545692
356 3 0.567019 0.446638 0.530513
357 4 0.545586 0.448465 0.550804
358 1 0.603906 0.451272 0.533485
359 3 0.611142 0.432005 0.540159
360 4 0.621741 0.456832 0.53748
361 1 0.601294 0.419627 0.522998
362 3 0.62274 0.403631 0.523775
363 4 0.588642 0.41714 0.513534
364 1 0.650778 0.416463 0.514604
365 3 0.65629 0.421115 0.533025
366 4 0.659709 0.423887 0.505893
367 1 0.69062 0.41231 0.533929
368 3 0.694518 0.433083 0.529807
369 4 0.707361 0.404923 0.530806
370 1 0.705077 0.438751 0.550186
371 3 0.722351 0.455906 0.54501
372 4 0.706677 0.438395 0.562289
373 1 0.751169 0.443385 0.537004
374 3 0.758678 0.455291 0.521936
375 4 0.76709 0.434527 0.536648
376 1 0.727179 0.450336 0.510808
377 3 0.712312 0.467268 0.503555
378 4 0.715759 0.441433 0.504395
379 1 0.703231 0.477409 0.522372
380 3 0.709372 0.496061 0.514018
381 4 0.694381 0.478211 0.53339
382 1 0.743401 0.49951 0.521199
383 3 0.753987 0.507691 0.504839
384 4 0.759813 0.498895 0.528579
385 1 0.755163 0.486606 0.494099
386 3 0.744358 0.498066 0.479261
387 4 0.758624 0.473542 0.491451
388 1 0.707977 0.494831 0.483699
389 3 0.704762 0.514704 0.47693
390 4 0.68995 0.489538 0.487655
391 1 0.710712 0.525826 0.495779
392 3 0.725771 0.540708 0.485158
393 4 0.710972 0.528722 0.50774
394 1 0.758883 0.529239 0.484785
395 3 0.762549 0.537883 0.467633
396 4 0.775187 0.521682 0.487964
397 1 0.744522 0.520158 0.457162
398 3 0.732103 0.534684 0.445201
399 4 0.738217 0.507717 0.45365
400 1 0.703737 0.541154 0.458303
401 3 0.709727 0.560545 0.45109
402 4 0.68783 0.540298 0.466293
403 1 0.732746 0.567282 0.467316
404 3 0.750048 0.577958 0.45438
405 4 0.740433 0.568966 0.478523
406 1 0.7704 0.558879 0.447856
407 3 0.769128 0.568966 0.431179
408 4 0.780302 0.546982 0.447523
409 1 0.739202 0.557613 0.424156
410 3 0.728739 0.575115 0.415128
411 4 0.727152 0.547142 0.421002
412 1 0.711273 0.584642 0.432241
413 3 0.721531 0.604185 0.427438
414 4 0.69884 0.585684 0.441959
415 1 0.755341 0.601814 0.436466
416 3 0.769087 0.611172 0.42143
417 4 0.769278 0.599488 0.445161
418 1 0.774694 0.590586 0.410468
419 3 0.769839 0.601351 0.394377
420 4 0.778825 0.577771 0.407574
421 1 0.732623 0.601779 0.396105
422 3 0.736795 0.620689 0.387679
423 4 0.712832 0.598428 0.398483
424 1 0.736808 0.633575 0.405942
425 3 0.758801 0.647014 0.398554
426 4 0.730271 0.638566 0.41669
427 1 0.788426 0.633566 0.403041
428 3 0.802459 0.640063 0.386839
429 4 0.802268 0.625884 0.409088
430 1 0.784227 0.624254 0.374196
431 3 0.781902 0.640107 0.361617
432 4 0.77639 0.612785 0.369702
433 1 0.750349 0.649429 0.369908
434 3 0.762316 0.668847 0.365517
435 4 0.731269 0.650525 0.374759
436 1 0.782326 0.671048 0.383661
437 3 0.80514 0.680771 0.372992
438 4 0.78818 0.670754 0.395193
439 1 0.821963 0.6599 0.366777
440 3 0.827379 0.669097 0.349902
441 4 0.830156 0.647406 0.366888
442 1 0.793473 0.663785 0.341904
443 3 0.795087 0.68299 0.33355
444 4 0.776062 0.656745 0.3389
445 1 0.780863 0.69519 0.350394
446 3 0.800832 0.71082 0.344504
447 4 0.769593 0.69862 0.36008
448 1 0.830251 0.703263 0.356085
449 3 0.849851 0.709715 0.342047
450 4 0.842028 0.698407 0.365137
451 1 0.845761 0.689406 0.330015
452 3 0.846992 0.702247 0.315042
453 4 0.843833 0.676395 0.326789
454 1 0.810365 0.707363 0.314891
455 3 0.817285 0.727102 0.309398
456 4 0.789657 0.705919 0.315319
457 1 0.823686 0.735728 0.329246
458 3 0.846951 0.748017 0.321328
459 4 0.822086 0.738179 0.341136
460 1 0.873567 0.731157 0.322841
461 3 0.884277 0.737698 0.305736
462 4 0.886451 0.721799 0.327748
463 1 0.861203 0.723181 0.294449
464 3 0.857975 0.737653 0.280721
465 4 0.849755 0.712523 0.290938
466 1 0.834409 0.752197 0.29173
467 3 0.850124 0.770358 0.287371
468 4 0.815261 0.754282 0.296494
469 1 0.867932 0.772265 0.306458
470 3 0.892018 0.781124 0.296407
471 4 0.871611 0.77149 0.318426
472 1 0.911084 0.760173 0.293458
473 3 0.914585 0.740433 0.286554
474 4 0.92669 0.756991 0.30102
475 1 0.899171 0.744978 0.26742
476 3 0.918032 0.730559 0.258551
477 4 0.886752 0.75127 0.25947
478 1 0.947862 0.745085 0.256704
479 3 0.965629 0.72769 0.26054
480 4 0.958681 0.756349 0.253739
481 1 0.969459 0.732778 0.281799
482 3 0.968515 0.712041 0.286126
483 4 0.972796 0.739774 0.291921
484 1 0.93093 0.71066 0.286158
485 3 0.933487 0.691331 0.278359
486 4 0.910879 0.713512 0.28837
487 1 0.934527 0.699316 0.257853
488 3 0.957778 0.686278 0.251258
489 4 0.928482 0.705848 0.24785
490 1 0.986049 0.698121 0.261103
491 3 0.999453 0.679701 0.267238
492 4 0.998482 0.708824 0.262974
493 1 0.987007 0.682384 0.287839
494 3 0.978882 0.663144 0.294306
495 4 0.987485 0.689406 0.298198
496 1 0.943745 0.663491 0.28638
497 3 0.952882 0.654196 0.270179
498 4 0.924447 0.668401 0.284264
499 1 0.948751 0.631231 0.278042
500 3 0.929425 0.623193 0.291746
501 4 0.968884 0.627774 0.277661
502 1 0.928058 0.600923 0.283043
503 3 0.927073 0.592306 0.300426
504 4 0.926608 0.590916 0.274855
505 1 0.964083 0.592787 0.30316
506 3 0.958503 0.596958 0.321494
507 4 0.984709 0.59178 0.30102
508 1 0.955385 0.62134 0.318744
509 3 0.932215 0.622097 0.33206
510 4 0.95905 0.633949 0.314907
511 1 0.904464 0.614585 0.318934
512 3 0.892401 0.603855 0.333899
513 4 0.892127 0.613301 0.309287
514 1 0.912985 0.583822 0.330062
515 3 0.91583 0.58171 0.348943
516 4 0.92204 0.57336 0.324197
517 1 0.944238 0.597581 0.350695
518 3 0.931121 0.603677 0.367174
519 4 0.96169 0.604755 0.348626
520 1 0.906461 0.61904 0.358502
521 3 0.885207 0.612802 0.37189
522 4 0.897927 0.628531 0.351567
523 1 0.872418 0.5935 0.360745
524 3 0.871201 0.583982 0.377843
525 4 0.86584 0.585471 0.35159
526 1 0.907118 0.576818 0.377708
527 3 0.907022 0.579901 0.396414
528 4 0.925596 0.572442 0.374038
529 1 0.912958 0.604024 0.395471
530 3 0.89236 0.605424 0.410261
531 4 0.921164 0.616109 0.392094
532 1 0.861244 0.606823 0.39815
533 3 0.848483 0.596405 0.413115
534 4 0.847594 0.609398 0.38909
535 1 0.856566 0.574278 0.405886
536 3 0.86268 0.567674 0.423578
537 4 0.858892 0.563317 0.398618
538 1 0.897407 0.576978 0.424529
539 3 0.891211 0.581585 0.442744
540 4 0.91687 0.580436 0.421525
541 1 0.875715 0.603276 0.438582
542 3 0.854556 0.598348 0.452557
543 4 0.872637 0.615859 0.433993
544 1 0.830033 0.587226 0.439565
545 3 0.822127 0.573583 0.453333
546 4 0.81801 0.584401 0.43003
547 1 0.85219 0.559574 0.450837
548 3 0.855568 0.559271 0.469781
549 4 0.865566 0.55117 0.445058
550 1 0.878778 0.578315 0.470557
551 3 0.8677 0.583617 0.487702
552 5 0.870804 0.574912 0.473742
553 1 0.835189 0.593037 0.480537
554 3 0.820896 0.583332 0.495423
555 4 0.822031 0.600923 0.474116
556 1 0.810679 0.563432 0.483826
557 3 0.81414 0.544433 0.492054
558 4 0.799395 0.557916 0.475028
559 1 0.850535 0.547008 0.49673
560 3 0.844284 0.536938 0.513003
561 4 0.870914 0.549058 0.494368
562 1 0.842301 0.556116 0.525765
563 3 0.821443 0.548078 0.538399
564 4 0.844079 0.568975 0.529736
565 1 0.792967 0.545039 0.524322
566 3 0.787633 0.527617 0.534793
567 4 0.778852 0.548229 0.515881
568 1 0.803704 0.511692 0.522372
569 3 0.816478 0.500196 0.536275
570 4 0.808614 0.505596 0.511862
571 1 0.84583 0.514463 0.539525
572 3 0.840195 0.508475 0.557581
573 4 0.862708 0.522341 0.537424
574 1 0.821771 0.528749 0.563035
575 3 0.800736 0.517342 0.573371
576 4 0.81827 0.542169 0.564319
577 1 0.778305 0.511621 0.556836
578 3 0.771248 0.49329 0.565262
579 5 0.794458 0.512044 0.549092
580 1 0.802979 0.482123 0.559071
581 3 0.812758 0.472267 0.574718
582 4 0.815644 0.476759 0.550939
583 1 0.825752 0.492336 0.584586
584 3 0.81232 0.488825 0.601374
585 4 0.840373 0.501943 0.585419
586 1 0.782832 0.504064 0.597895
587 3 0.760169 0.510845 0.585419
588 4 0.784747 0.516442 0.602785
589 1 0.738367 0.491044 0.588034
590 3 0.707977 0.498173 0.586544
591 4 0.733635 0.477748 0.588684
592 1 0.709755 0.51261 0.603927
593 3 0.694122 0.530068 0.598339
594 4 0.712654 0.515747 0.615666
595 1 0.721107 0.537883 0.58484
596 3 0.705145 0.545057 0.56978
597 4 0.740419 0.542205 0.582621
598 1 0.699565 0.522671 0.560799
599 3 0.674262 0.51171 0.554205
600 4 0.712367 0.516041 0.553142
601 1 0.658588 0.507922 0.57406
602 3 0.6535 0.521459 0.58851
603 4 0.661843 0.495669 0.57903
604 1 0.615559 0.519855 0.586695
605 3 0.596507 0.502317 0.586069
606 4 0.602894 0.528588 0.580829
607 1 0.595563 0.500241 0.608461
608 3 0.594168 0.478995 0.607153
609 4 0.574733 0.500045 0.607224
610 1 0.631179 0.476714 0.600447
611 3 0.626898 0.458526 0.590991
612 4 0.634625 0.469202 0.610537
613 1 0.601567 0.467785 0.57689
614 3 0.608789 0.469442 0.558612
615 4 0.58153 0.465093 0.579506
616 1 0.595166 0.492452 0.556519
617 3 0.622288 0.503672 0.560308
618 4 0.580614 0.502067 0.557716
619 1 0.636855 0.500294 0.540135
620 3 0.630618 0.516059 0.527635
621 4 0.643598 0.492666 0.530933
622 1 0.636308 0.534211 0.542363
623 3 0.656359 0.538275 0.55686
624 4 0.618267 0.539327 0.546746
625 1 0.677025 0.554476 0.545945
626 3 0.658643 0.571283 0.550915
627 4 0.687953 0.560598 0.537155
628 1 0.668969 0.57033 0.572015
629 3 0.678817 0.584793 0.584491
630 4 0.66012 0.562568 0.580647
631 1 0.713461 0.587003 0.576494
632 3 0.712422 0.600932 0.562226
633 4 0.732459 0.582316 0.573656
634 1 0.702574 0.620181 0.573886
635 3 0.717906 0.63427 0.562717
636 4 0.694012 0.627025 0.583041
637 1 0.752182 0.628487 0.569328
638 3 0.760169 0.631748 0.551193
639 4 0.768334 0.625537 0.576398
640 1 0.756832 0.608409 0.545272
641 3 0.745001 0.61356 0.528349
642 4 0.759006 0.594926 0.54543
643 1 0.710206 0.617802 0.535308
644 3 0.710808 0.634333 0.523244
645 4 0.691673 0.615895 0.540912
646 1 0.722488 0.650552 0.537741
647 3 0.737861 0.659125 0.522689
648 4 0.724991 0.657146 0.548268
649 1 0.770591 0.647994 0.526446
650 3 0.772862 0.647655 0.507494
651 4 0.787182 0.642513 0.532201
652 1 0.754944 0.626588 0.505101
653 3 0.743524 0.633299 0.488463
654 5 0.758897 0.609042 0.496285
655 1 0.716333 0.647067 0.497087
656 3 0.723487 0.660524 0.48297
657 4 0.699852 0.650525 0.503809
658 1 0.744741 0.675174 0.494891
659 3 0.763328 0.67865 0.479705
660 4 0.751197 0.683088 0.503975
661 1 0.786402 0.659953 0.482923
662 3 0.78539 0.657672 0.464026
663 4 0.800339 0.652236 0.489042
664 1 0.76367 0.637817 0.464351
665 3 0.74429 0.637986 0.449339
666 4 0.759417 0.624967 0.467807
667 1 0.722707 0.656237 0.455854
668 3 0.722338 0.674239 0.445883
669 4 0.704598 0.652147 0.460531
670 1 0.719589 0.689148 0.462766
671 3 0.733608 0.703638 0.451582
672 4 0.714309 0.694245 0.473633
673 1 0.76869 0.6983 0.457297
674 3 0.774325 0.703602 0.43932
675 4 0.785527 0.695403 0.464216
676 1 0.770345 0.682134 0.430585
677 3 0.755847 0.690885 0.415517
678 4 0.770919 0.668624 0.429515
679 1 0.722324 0.69306 0.424688
680 3 0.719985 0.711052 0.414344
681 4 0.705036 0.690591 0.431251
682 1 0.734962 0.725391 0.429562
683 3 0.749255 0.736414 0.415707
684 4 0.73912 0.731192 0.440049
685 1 0.778401 0.721274 0.413503
686 3 0.774831 0.725631 0.394956
687 4 0.794403 0.712941 0.41604
688 1 0.750294 0.707621 0.391492
689 3 0.737506 0.720801 0.378524
690 4 0.739845 0.695876 0.392451
691 1 0.713612 0.731691 0.392245
692 3 0.719397 0.749185 0.381742
693 4 0.699633 0.733554 0.401162
694 1 0.748571 0.756991 0.393513
695 3 0.759786 0.763978 0.376717
696 4 0.760867 0.75987 0.402906
697 1 0.776855 0.743018 0.371557
698 3 0.768717 0.747777 0.353604
699 4 0.787072 0.731103 0.372421
700 1 0.734428 0.738295 0.354602
701 3 0.725566 0.754398 0.343141
702 4 0.718358 0.729998 0.357028
703 1 0.718973 0.770073 0.359105
704 3 0.730325 0.785294 0.347508
705 4 0.712627 0.775714 0.36948
706 1 0.766392 0.781284 0.352011
707 3 0.774571 0.784546 0.333764
708 4 0.783885 0.779448 0.358169
709 1 0.765366 0.761964 0.327304
710 3 0.754999 0.772301 0.311554
711 4 0.762645 0.748498 0.32686
712 1 0.720382 0.776302 0.319013
713 3 0.722584 0.795034 0.309771
714 4 0.701808 0.774814 0.324815
715 1 0.739913 0.806646 0.326067
716 3 0.754425 0.817928 0.312062
717 4 0.746328 0.810398 0.336903
718 1 0.782463 0.802226 0.309382
719 3 0.780028 0.807154 0.290977
720 4 0.798288 0.793671 0.312101
721 1 0.755067 0.790008 0.28638
722 3 0.743989 0.804401 0.273738
723 4 0.743948 0.778521 0.285968
724 1 0.720929 0.815273 0.287593
725 3 0.726838 0.834504 0.27969
726 4 0.705747 0.816921 0.295757
727 1 0.759102 0.83789 0.290296
728 3 0.769483 0.846926 0.274166
729 4 0.773149 0.838443 0.299292
730 1 0.78193 0.826198 0.265724
731 3 0.77148 0.832516 0.248508
732 4 0.791969 0.814355 0.264804
733 1 0.736699 0.82446 0.251385
734 3 0.724321 0.841562 0.242531
735 4 0.720779 0.816039 0.253961
736 1 0.726099 0.856052 0.259977
737 3 0.73581 0.872449 0.249221
738 4 0.723117 0.860312 0.271312
739 1 0.771699 0.866559 0.249808
740 3 0.776541 0.872511 0.231894
741 4 0.790738 0.862932 0.253842
742 1 0.760661 0.852229 0.223278
743 3 0.73633 0.850509 0.210834
744 4 0.766447 0.839414 0.2209
745 1 0.711177 0.863591 0.223754
746 3 0.693219 0.851427 0.211777
747 4 0.710411 0.873126 0.21513
748 1 0.684192 0.835252 0.227661
749 3 0.666466 0.840474 0.242833
750 4 0.693246 0.823926 0.231886
751 1 0.6336 0.840679 0.23214
752 3 0.612044 0.835065 0.245369
753 5 0.651052 0.828354 0.245932
754 1 0.618582 0.81104 0.243633
755 3 0.642736 0.803278 0.254159
756 4 0.617064 0.799562 0.237062
757 1 0.627568 0.810692 0.273294
758 3 0.617118 0.804026 0.290232
759 4 0.633476 0.822598 0.278264
760 1 0.584676 0.79499 0.283154
761 3 0.59771 0.776204 0.278049
762 4 0.565678 0.797503 0.278699
763 1 0.581202 0.764049 0.294735
764 3 0.550141 0.765537 0.300727
765 4 0.593566 0.762124 0.304484
766 1 0.541128 0.742537 0.296565
767 3 0.550784 0.737118 0.314194
768 4 0.541798 0.730551 0.290938
769 1 0.518546 0.742278 0.323951
770 3 0.509123 0.721951 0.321066
771 4 0.501122 0.749577 0.325552
772 1 0.519764 0.714777 0.340914
773 3 0.533687 0.695769 0.339899
774 5 0.521378 0.69532 0.354313
775 1 0.560563 0.702363 0.32579
776 3 0.590297 0.697444 0.332099
777 4 0.56033 0.702729 0.313758
778 1 0.602183 0.720338 0.334612
779 3 0.586222 0.738134 0.340002
780 4 0.61571 0.720623 0.325449
781 1 0.617283 0.748391 0.348792
782 3 0.62393 0.768683 0.344488
783 4 0.631589 0.748097 0.357591
784 1 0.62594 0.764967 0.323135
785 3 0.612728 0.784073 0.319861
786 4 0.630632 0.75937 0.31249
787 1 0.577304 0.776837 0.322548
788 3 0.570711 0.795658 0.33057
789 4 0.559811 0.769476 0.321906
790 1 0.582939 0.789108 0.350489
791 3 0.593306 0.809329 0.351963
792 4 0.586919 0.781765 0.360397
793 1 0.626378 0.805372 0.343014
794 3 0.625653 0.824006 0.334081
795 4 0.645157 0.799704 0.340668
796 1 0.603824 0.816324 0.31788
797 3 0.58908 0.835466 0.318886
798 4 0.595823 0.808544 0.309057
799 1 0.563982 0.828631 0.333891
800 3 0.566581 0.848495 0.340723
801 4 0.5501 0.821234 0.340176
802 1 0.595891 0.843683 0.353382
803 3 0.608926 0.862798 0.349387
804 4 0.608283 0.837641 0.361498
805 1 0.623848 0.855883 0.330681
806 3 0.615217 0.875114 0.324078
807 4 0.634078 0.84837 0.32235
808 1 0.581106 0.867967 0.317436
809 3 0.568277 0.886583 0.32281
810 4 0.565774 0.860641 0.312466
811 1 0.565364 0.880559 0.343886
812 3 0.573775 0.900663 0.347952
813 4 0.560905 0.87334 0.353889
814 1 0.610553 0.896296 0.34781
815 3 0.617351 0.914948 0.33959
816 4 0.628949 0.890263 0.350037
817 1 0.608078 0.907953 0.319679
818 3 0.593744 0.926703 0.315763
819 4 0.608474 0.900788 0.309573
820 1 0.560495 0.920669 0.324427
821 3 0.555926 0.939999 0.331893
822 4 0.543289 0.913442 0.32663
823 1 0.575649 0.935222 0.350172
824 3 0.59224 0.953107 0.353738
825 4 0.579383 0.928627 0.360428
826 1 0.616749 0.950291 0.337426
827 3 0.594359 0.960647 0.326931
828 4 0.632205 0.943822 0.331893
829 1 0.617474 0.979316 0.322366
830 3 0.627363 0.967036 0.307678
831 4 0.628717 0.990144 0.325861
832 1 0.618801 0.984004 0.292777
833 3 0.642339 0.980698 0.280079
834 4 0.607394 0.993272 0.286959
835 1 0.669653 0.990527 0.291976
836 3 0.689991 0.976768 0.283535
837 4 0.679651 0.999644 0.298935
838 1 0.687953 0.959105 0.297596
839 3 0.68731 0.944169 0.284153
840 4 0.687365 0.953161 0.308495
841 1 0.650682 0.94654 0.279849
842 3 0.658779 0.942966 0.261713
843 4 0.629961 0.948509 0.280958
844 1 0.667889 0.965949 0.257259
845 3 0.692699 0.95931 0.246574
846 4 0.666876 0.979566 0.256831
847 1 0.71647 0.956084 0.26314
848 3 0.727645 0.938894 0.254025
849 4 0.726988 0.958071 0.273492
850 1 0.702437 0.923379 0.262022
851 3 0.70148 0.913906 0.245004
852 4 0.690333 0.916793 0.269925
853 1 0.675192 0.928529 0.236848
854 3 0.690702 0.927861 0.2201
855 4 0.657836 0.936006 0.235778
856 1 0.715554 0.945016 0.224974
857 3 0.73782 0.933894 0.215098
858 4 0.724088 0.956494 0.229199
859 1 0.747312 0.919404 0.231537
860 3 0.749856 0.90306 0.219363
861 4 0.753317 0.915412 0.242595
862 1 0.713516 0.897045 0.220234
863 3 0.714569 0.892438 0.201742
864 4 0.694422 0.894042 0.224404
865 1 0.709987 0.915474 0.195155
866 3 0.730695 0.912141 0.180817
867 4 0.702082 0.92803 0.194149
868 1 0.76155 0.915857 0.192635
869 3 0.775747 0.899986 0.182996
870 4 0.775187 0.921712 0.200054
871 1 0.763971 0.882323 0.196225
872 3 0.759376 0.869116 0.181506
873 4 0.76021 0.875417 0.206292
874 1 0.725333 0.877493 0.176338
875 3 0.730421 0.876112 0.157727
876 4 0.70546 0.881263 0.177757
877 1 0.751334 0.896252 0.156332
878 3 0.77293 0.887483 0.1443
879 4 0.756175 0.909405 0.157299
880 1 0.793473 0.876905 0.160105
881 3 0.7993 0.85844 0.151212
882 4 0.805263 0.875996 0.170037
883 1 0.764026 0.849368 0.155539
884 3 0.78156 0.831563 0.153058
885 4 0.760675 0.848949 0.143586
886 1 0.788071 0.827027 0.173944
887 3 0.769278 0.813089 0.183409
888 4 0.795169 0.831287 0.184756
889 1 0.758747 0.801023 0.165598
890 3 0.756216 0.783253 0.176053
891 4 0.752947 0.798474 0.154113
892 1 0.791764 0.776605 0.173548
893 3 0.79004 0.768059 0.190907
894 5 0.783899 0.749 0.187923
895 1 0.800777 0.788351 0.201235
896 3 0.780576 0.782238 0.215138
897 4 0.810597 0.799909 0.204081
898 1 0.75013 0.792771 0.206823
899 3 0.731064 0.776454 0.212047
900 4 0.737711 0.802084 0.202186
901 1 0.740693 0.761991 0.195583
902 3 0.74046 0.745869 0.208258
903 4 0.744946 0.75757 0.184479
904 1 0.776103 0.749015 0.214464
905 3 0.766803 0.74382 0.232132
906 4 0.796441 0.751457 0.214226
907 1 0.755204 0.766286 0.237538
908 3 0.731296 0.756278 0.246875
909 4 0.754725 0.779974 0.238679
910 1 0.708154 0.75463 0.229968
911 3 0.698334 0.735915 0.236595
912 4 0.697746 0.757401 0.219894
913 1 0.727645 0.72343 0.228898
914 3 0.727084 0.711854 0.244822
915 4 0.742211 0.718663 0.221368
916 1 0.748215 0.727129 0.256363
917 3 0.729764 0.723457 0.271669