ITEM: TIMESTEP
0
ITEM: NUMBER OF ATOMS
8634
ITEM: BOX BOUNDS ss ss ss
29.52 158.25
22.61 173.74
2.74 128.97
ITEM: ATOMS id type xs ys zs
1 1 0.362231 0.872825 0.775965
2 3 0.343743 0.875074 0.781035
3 4 0.368601 0.86859 0.785471
4 1 0.336441 0.859326 0.776361
5 3 0.338072 0.854496 0.795057
6 4 0.334343 0.850791 0.769865
7 1 0.318496 0.861047 0.80084
8 3 0.312204 0.84649 0.798463
9 4 0.309019 0.867333 0.801949
10 1 0.314845 0.842057 0.820011
11 3 0.302571 0.83008 0.815179
12 4 0.315777 0.843115 0.832132
13 1 0.285792 0.839939 0.815496
14 3 0.273674 0.839939 0.801474
15 4 0.277791 0.844703 0.823259
16 1 0.287501 0.844769 0.784996
17 3 0.290375 0.835704 0.769231
18 4 0.292395 0.85357 0.781193
19 1 0.298609 0.821677 0.780401
20 3 0.292861 0.813538 0.765032
21 4 0.302804 0.815523 0.789274
22 1 0.271421 0.812876 0.770419
23 3 0.269712 0.812942 0.751169
24 4 0.261788 0.812347 0.778103
25 1 0.269479 0.831867 0.750614
26 3 0.276159 0.828624 0.73374
27 4 0.269168 0.841858 0.7541
28 1 0.29659 0.827169 0.739761
29 3 0.297755 0.81592 0.726769
30 4 0.307465 0.827897 0.745227
31 1 0.290531 0.801892 0.738731
32 3 0.28284 0.795408 0.722808
33 4 0.286957 0.796864 0.749346
34 1 0.266682 0.807318 0.722174
35 3 0.270799 0.806524 0.703319
36 4 0.25806 0.813538 0.726214
37 1 0.282296 0.822338 0.703557
38 3 0.291152 0.815722 0.688505
39 4 0.28688 0.831403 0.70728
40 1 0.303814 0.80487 0.702369
41 3 0.303659 0.794614 0.688822
42 4 0.309407 0.801429 0.712509
43 1 0.284083 0.788196 0.693971
44 3 0.284083 0.78674 0.675038
45 4 0.27445 0.785218 0.699754
46 1 0.27414 0.803613 0.670522
47 3 0.283306 0.803083 0.653727
48 4 0.267925 0.812479 0.671631
49 1 0.301173 0.810825 0.661649
50 3 0.310106 0.802157 0.648895
51 4 0.307388 0.817508 0.667591
52 1 0.31267 0.787005 0.662362
53 3 0.310339 0.777873 0.647469
54 4 0.314612 0.781116 0.672265
55 1 0.28921 0.77827 0.645805
56 3 0.287656 0.778469 0.627109
57 4 0.278412 0.775557 0.6504
58 1 0.292395 0.796797 0.626317
59 3 0.303581 0.794746 0.61079
60 4 0.291463 0.806855 0.628456
61 1 0.32137 0.790511 0.62402
62 3 0.3244 0.779395 0.610711
63 4 0.328051 0.790578 0.633605
64 1 0.312048 0.766426 0.619029
65 3 0.309097 0.763383 0.600808
66 4 0.305912 0.760802 0.627347
67 1 0.292395 0.775359 0.599144
68 3 0.294958 0.778006 0.580528
69 4 0.283617 0.782042 0.602392
70 1 0.314534 0.787005 0.583696
71 3 0.321992 0.780719 0.568724
72 5 0.306921 0.734903 0.541649
73 1 0.327663 0.764772 0.579577
74 3 0.322846 0.758221 0.562624
75 4 0.331158 0.757891 0.587895
76 1 0.30195 0.754053 0.567694
77 3 0.299076 0.755575 0.54876
78 4 0.29154 0.753193 0.573873
79 1 0.299386 0.774168 0.549552
80 3 0.307077 0.771058 0.532441
81 4 0.298454 0.783895 0.553751
82 1 0.327274 0.770066 0.538937
83 3 0.327507 0.759148 0.524915
84 4 0.337684 0.770396 0.545116
85 1 0.323778 0.744591 0.537986
86 3 0.318807 0.73804 0.521588
87 4 0.321603 0.738503 0.547097
88 1 0.299542 0.745914 0.520082
89 3 0.292473 0.752002 0.504159
90 4 0.288511 0.744723 0.524836
91 1 0.308087 0.765301 0.502654
92 3 0.317409 0.764441 0.486414
93 4 0.30964 0.774234 0.507486
94 1 0.332557 0.751605 0.494811
95 3 0.32238 0.738768 0.490692
96 4 0.340558 0.747833 0.502495
97 1 0.324478 0.738768 0.469144
98 3 0.341335 0.732813 0.465658
99 4 0.323312 0.742076 0.457102
100 1 0.334654 0.714881 0.467322
101 3 0.331702 0.707338 0.450527
102 4 0.329682 0.707073 0.472946
103 1 0.348947 0.717263 0.441179
104 3 0.359978 0.705816 0.44712
105 4 0.354929 0.725865 0.438089
106 1 0.365261 0.701515 0.426127
107 3 0.377612 0.71283 0.427632
108 4 0.365494 0.699199 0.414085
109 1 0.393304 0.701978 0.435554
110 3 0.400917 0.714153 0.445377
111 4 0.399052 0.704559 0.424939
112 1 0.385303 0.71422 0.46138
113 3 0.399052 0.71991 0.472788
114 4 0.375359 0.71197 0.467401
115 1 0.407287 0.7035 0.478333
116 3 0.423911 0.709786 0.483324
117 4 0.409151 0.69331 0.480076
118 1 0.428338 0.714484 0.461618
119 3 0.435019 0.728843 0.456468
120 4 0.429271 0.710845 0.449893
121 1 0.417618 0.738305 0.465579
122 3 0.411559 0.736452 0.483562
123 4 0.407908 0.739893 0.45829
124 1 0.41187 0.755641 0.48784
125 3 0.400373 0.754913 0.502733
126 4 0.412569 0.765632 0.486731
127 1 0.382894 0.751935 0.491246
128 3 0.375515 0.743797 0.50606
129 4 0.375515 0.750744 0.481581
130 1 0.389342 0.72924 0.503208
131 3 0.390197 0.728049 0.522142
132 4 0.395945 0.721829 0.498218
133 1 0.407597 0.740157 0.523806
134 3 0.399052 0.744128 0.539808
135 4 0.416997 0.745583 0.520082
136 1 0.386701 0.757229 0.529589
137 3 0.376447 0.754648 0.545116
138 4 0.382195 0.762853 0.520795
139 1 0.36495 0.740091 0.535372
140 3 0.363785 0.732019 0.552484
141 4 0.360056 0.734732 0.526262
142 1 0.383749 0.725071 0.551137
143 3 0.385225 0.726924 0.569833
144 4 0.394158 0.72077 0.547493
145 1 0.391672 0.743797 0.569199
146 3 0.380952 0.746774 0.584885
147 4 0.397809 0.751935 0.56603
148 1 0.362309 0.74909 0.573239
149 3 0.354463 0.74287 0.588687
150 4 0.355317 0.751274 0.563971
151 1 0.355084 0.726262 0.581716
152 3 0.355783 0.722755 0.600808
153 4 0.35555 0.717528 0.574824
154 1 0.378467 0.726262 0.601838
155 3 0.376913 0.732482 0.619108
156 4 0.389187 0.726792 0.596926
157 1 0.371631 0.749421 0.611424
158 3 0.358968 0.748693 0.626238
159 4 0.370931 0.757097 0.603581
160 1 0.343044 0.740488 0.613563
161 3 0.337217 0.734269 0.629961
162 4 0.336285 0.737246 0.603818
163 1 0.35019 0.719844 0.629169
164 3 0.353298 0.72077 0.64731
165 4 0.355628 0.711771 0.624812
166 1 0.368213 0.734533 0.645488
167 3 0.360367 0.73943 0.661174
168 4 0.37769 0.740224 0.641765
169 1 0.345141 0.749156 0.651588
170 3 0.335198 0.746708 0.667353
171 5 0.352754 0.700485 0.609284
172 1 0.329294 0.729637 0.662996
173 3 0.331391 0.723351 0.679553
174 4 0.324555 0.721763 0.656421
175 1 0.35322 0.723285 0.680187
176 3 0.359046 0.730894 0.696427
177 4 0.363629 0.719778 0.676939
178 1 0.35625 0.748098 0.68803
179 3 0.348015 0.751538 0.704666
180 4 0.359357 0.755839 0.681296
181 1 0.326963 0.750943 0.694922
182 3 0.324711 0.753325 0.713618
183 4 0.318651 0.747436 0.687396
184 1 0.324089 0.735923 0.720273
185 3 0.326808 0.742209 0.737305
186 4 0.324322 0.726064 0.719639
187 1 0.349802 0.742937 0.733185
188 3 0.347704 0.755906 0.744356
189 4 0.360211 0.741481 0.727402
190 1 0.343976 0.767617 0.727402
191 3 0.334266 0.774366 0.742454
192 4 0.342577 0.77119 0.715915
193 1 0.3157 0.766095 0.737463
194 3 0.312282 0.770066 0.756001
195 4 0.307388 0.759214 0.733106
196 1 0.322769 0.755575 0.763448
197 3 0.32774 0.764971 0.777945
198 4 0.325099 0.745848 0.765666
199 1 0.346306 0.77119 0.76828
200 3 0.342655 0.784887 0.777549
201 4 0.356483 0.772117 0.761546
202 1 0.328051 0.791636 0.763131
203 3 0.31904 0.797194 0.778975
204 4 0.324711 0.795474 0.752436
205 1 0.305135 0.783034 0.779926
206 3 0.301484 0.784689 0.798463
207 4 0.298376 0.775822 0.775014
208 1 0.318496 0.77483 0.804801
209 3 0.336363 0.776947 0.799097
210 4 0.317409 0.765169 0.807257
211 1 0.344364 0.780454 0.81914
212 3 0.349336 0.765169 0.815733
213 5 0.333722 0.727951 0.768867
214 1 0.370854 0.768742 0.822229
215 3 0.36627 0.757361 0.834271
216 4 0.379554 0.773705 0.828884
217 1 0.371242 0.743267 0.820486
218 3 0.377068 0.729571 0.813277
219 4 0.359745 0.740091 0.820249
220 1 0.385691 0.736187 0.795215
221 3 0.376991 0.72302 0.790224
222 4 0.393615 0.74115 0.788244
223 1 0.366504 0.729901 0.773033
224 3 0.369922 0.716734 0.764715
225 4 0.360522 0.737643 0.767409
226 1 0.388177 0.721432 0.754813
227 3 0.404257 0.726593 0.761863
228 4 0.38841 0.726262 0.744435
229 1 0.412647 0.709389 0.766696
230 3 0.420881 0.715212 0.751089
231 4 0.413501 0.699133 0.76622
232 1 0.438981 0.720307 0.762259
233 3 0.445428 0.723615 0.745306
234 4 0.447837 0.721101 0.770736
235 1 0.451565 0.707338 0.740236
236 3 0.445972 0.707206 0.721857
237 4 0.458168 0.698802 0.741187
238 1 0.425386 0.704493 0.725818
239 3 0.420726 0.714947 0.712667
240 4 0.415521 0.700787 0.730888
241 1 0.421813 0.730232 0.726689
242 3 0.428338 0.737445 0.711875
243 4 0.420026 0.736386 0.73675
244 1 0.448924 0.732283 0.715836
245 3 0.451643 0.734004 0.697299
246 4 0.459256 0.729637 0.721461
247 1 0.442632 0.71852 0.690723
248 3 0.434708 0.72613 0.676622
249 4 0.44201 0.708529 0.690327
250 1 0.415754 0.729703 0.687554
251 3 0.414977 0.742738 0.677018
252 4 0.407597 0.728644 0.696506
253 1 0.427872 0.752796 0.689535
254 3 0.43634 0.759148 0.674325
255 4 0.431756 0.757891 0.699438
256 1 0.448924 0.744855 0.66973
257 3 0.446749 0.74909 0.651509
258 4 0.456615 0.73718 0.671235
259 1 0.427639 0.741084 0.648499
260 3 0.423289 0.753523 0.636774
261 4 0.417851 0.734864 0.648578
262 1 0.419017 0.7655 0.653648
263 3 0.427095 0.775954 0.641844
264 4 0.41521 0.768941 0.664501
265 1 0.447604 0.773374 0.650242
266 3 0.452575 0.774962 0.631625
267 4 0.456071 0.771587 0.659273
268 1 0.451565 0.757758 0.626396
269 3 0.448303 0.76411 0.609205
270 4 0.451721 0.746973 0.627981
271 1 0.426008 0.76411 0.611186
272 3 0.425697 0.776947 0.600016
273 4 0.414822 0.762588 0.614513
274 1 0.433077 0.78846 0.615939
275 3 0.442399 0.794085 0.601838
276 4 0.43533 0.793158 0.626396
277 1 0.461276 0.783961 0.606987
278 3 0.464927 0.786343 0.589321
279 4 0.469121 0.776947 0.612057
280 1 0.451876 0.772448 0.581399
281 3 0.451643 0.780917 0.56508
282 4 0.444108 0.764177 0.581795
283 1 0.435097 0.791769 0.572289
284 3 0.444186 0.802356 0.561594
285 4 0.425076 0.794482 0.577517
286 1 0.455915 0.808906 0.578864
287 3 0.468811 0.811751 0.565396
288 4 0.460033 0.810957 0.59043
289 1 0.477899 0.795209 0.567773
290 3 0.48326 0.798981 0.549552
291 4 0.481706 0.785549 0.570625
292 1 0.464771 0.792695 0.54068
293 3 0.466014 0.804804 0.527212
294 4 0.454828 0.786608 0.538699
295 1 0.459877 0.818501 0.539888
296 3 0.473394 0.828095 0.532678
297 4 0.452264 0.824125 0.546384
298 1 0.488542 0.821941 0.545987
299 3 0.498641 0.822405 0.529589
300 4 0.495533 0.81989 0.555811
301 1 0.496232 0.804407 0.524281
302 3 0.49934 0.809237 0.50709
303 4 0.492659 0.794812 0.524994
304 1 0.480385 0.816516 0.50202
305 3 0.487687 0.830477 0.49497
306 4 0.469121 0.816317 0.498218
307 1 0.491805 0.838483 0.512477
308 3 0.506642 0.842851 0.503129
309 4 0.491727 0.842652 0.523647
310 1 0.51977 0.829551 0.508516
311 3 0.528781 0.830477 0.491801
312 4 0.524353 0.821346 0.514537
313 1 0.51208 0.821677 0.480868
314 3 0.515109 0.831999 0.466925
315 4 0.504622 0.814001 0.477858
316 1 0.501515 0.84424 0.474531
317 3 0.513944 0.854761 0.468827
318 4 0.491572 0.848938 0.477779
319 1 0.525285 0.854893 0.489028
320 3 0.539657 0.85926 0.478175
321 4 0.528237 0.854033 0.501545
322 1 0.544162 0.841593 0.471679
323 3 0.550221 0.848607 0.455993
324 4 0.545327 0.831403 0.471758
325 1 0.530879 0.847615 0.445694
326 3 0.51674 0.840667 0.436584
327 4 0.537792 0.842917 0.437693
328 1 0.501437 0.853504 0.441496
329 3 0.495145 0.854099 0.423433
330 4 0.495145 0.860319 0.448071
331 1 0.509671 0.865811 0.415194
332 3 0.521634 0.854893 0.410362
333 4 0.513167 0.875802 0.415591
334 1 0.524975 0.861576 0.390082
335 3 0.540977 0.866803 0.395944
336 4 0.520547 0.859525 0.379308
337 1 0.526606 0.880765 0.377723
338 3 0.51744 0.885066 0.392458
339 4 0.532743 0.889036 0.374079
340 1 0.497165 0.884073 0.380496
341 3 0.497631 0.874876 0.396023
342 4 0.489474 0.879508 0.372732
343 1 0.483493 0.885397 0.407193
344 3 0.474404 0.875405 0.418918
345 4 0.474249 0.891616 0.409649
346 1 0.474015 0.860584 0.406322
347 3 0.482327 0.854893 0.390478
348 4 0.462208 0.860187 0.405371
349 1 0.485745 0.838153 0.398875
350 3 0.476579 0.829683 0.411471
351 4 0.497553 0.839211 0.402282
352 1 0.478443 0.813869 0.401252
353 3 0.493047 0.803745 0.399192
354 4 0.471141 0.810627 0.391745
355 1 0.49196 0.796334 0.418997
356 3 0.482871 0.783431 0.413927
357 4 0.491183 0.796003 0.430801
358 1 0.497242 0.776021 0.400063
359 3 0.505554 0.766889 0.413689
360 4 0.50501 0.774962 0.390715
361 1 0.489785 0.753523 0.409887
362 3 0.482405 0.758288 0.427236
363 4 0.498951 0.748164 0.413769
364 1 0.465237 0.748164 0.425097
365 3 0.464383 0.741944 0.44205
366 4 0.454284 0.746179 0.419789
367 1 0.47922 0.728181 0.436505
368 3 0.485823 0.729372 0.454171
369 4 0.484969 0.721101 0.430009
370 1 0.499417 0.742738 0.449101
371 3 0.495378 0.746907 0.46645
372 4 0.505865 0.749289 0.442605
373 1 0.47922 0.757957 0.460746
374 3 0.471063 0.754582 0.477224
375 4 0.472928 0.764177 0.453854
376 1 0.464694 0.737643 0.471758
377 3 0.470209 0.734864 0.489741
378 4 0.458634 0.730232 0.464945
379 1 0.49196 0.730365 0.484909
380 3 0.497786 0.736187 0.501703
381 4 0.501282 0.726064 0.478492
382 1 0.495844 0.753391 0.496712
383 3 0.490639 0.754781 0.51525
384 4 0.495145 0.762522 0.491246
385 1 0.470364 0.750744 0.512477
386 3 0.472773 0.745252 0.530936
387 4 0.459333 0.749024 0.508675
388 1 0.480929 0.72924 0.524202
389 3 0.492193 0.729835 0.539095
390 4 0.483104 0.720969 0.51731
391 1 0.507186 0.739959 0.528717
392 3 0.508972 0.745517 0.546621
393 4 0.511769 0.74512 0.519369
394 1 0.491494 0.759148 0.544562
395 3 0.490251 0.756766 0.56302
396 4 0.482949 0.764904 0.539412
397 1 0.4772 0.741415 0.560168
398 3 0.486367 0.735989 0.575774
399 4 0.469588 0.735261 0.555177
400 1 0.502602 0.72838 0.564763
401 3 0.509827 0.730828 0.58235
402 4 0.51107 0.725534 0.556841
403 1 0.514876 0.748826 0.5772
404 3 0.510371 0.752134 0.595579
405 4 0.518682 0.756766 0.570308
406 1 0.490096 0.754582 0.591935
407 3 0.487532 0.751274 0.609522
408 4 0.478521 0.755376 0.587261
409 1 0.48994 0.732283 0.606037
410 3 0.497786 0.732217 0.623069
411 4 0.48761 0.723086 0.601125
412 1 0.518372 0.73493 0.614672
413 3 0.523887 0.742275 0.629882
414 5 0.508506 0.674529 0.575483
415 1 0.517828 0.759148 0.623465
416 3 0.512002 0.766095 0.639626
417 4 0.519615 0.766625 0.615543
418 1 0.493436 0.756898 0.63923
419 3 0.490018 0.753987 0.656896
420 4 0.482327 0.755906 0.635427
421 1 0.5047 0.738966 0.657688
422 3 0.507962 0.741679 0.676067
423 4 0.510604 0.731026 0.653331
424 1 0.52179 0.754648 0.674721
425 3 0.516818 0.764044 0.688347
426 4 0.532121 0.757692 0.670918
427 1 0.500971 0.772778 0.677493
428 3 0.496388 0.776418 0.695635
429 4 0.493591 0.776616 0.668858
430 1 0.484891 0.762191 0.701418
431 3 0.492504 0.764044 0.718688
432 4 0.477278 0.75445 0.700151
433 1 0.510371 0.753325 0.713856
434 3 0.518216 0.761993 0.728749
435 4 0.518139 0.748098 0.70736
436 1 0.521091 0.777543 0.715678
437 3 0.515653 0.785747 0.73065
438 4 0.522334 0.783961 0.706013
439 1 0.494446 0.78502 0.725976
440 3 0.491572 0.787335 0.74491
441 5 0.50268 0.731027 0.677361
442 1 0.497009 0.769602 0.749267
443 3 0.507341 0.77033 0.765349
444 4 0.498485 0.759743 0.747762
445 1 0.522567 0.781645 0.757506
446 3 0.528626 0.795011 0.766458
447 4 0.532665 0.782174 0.750772
448 1 0.508817 0.801297 0.772241
449 3 0.503146 0.790776 0.784996
450 4 0.50035 0.807384 0.7663
451 1 0.504001 0.803679 0.802107
452 3 0.487532 0.79918 0.810505
453 4 0.508118 0.812347 0.807573
454 1 0.474792 0.805598 0.793868
455 3 0.468422 0.806987 0.811931
456 4 0.470908 0.796003 0.792997
457 1 0.460266 0.823331 0.809633
458 3 0.450633 0.829154 0.79569
459 4 0.467024 0.830014 0.815099
460 1 0.433388 0.834778 0.808286
461 3 0.429504 0.829352 0.790383
462 4 0.434553 0.844703 0.807098
463 1 0.409772 0.822669 0.796562
464 3 0.408063 0.811222 0.78349
465 4 0.405111 0.829021 0.787848
466 1 0.424299 0.800701 0.790779
467 3 0.423755 0.786144 0.799414
468 4 0.435874 0.800371 0.791412
469 1 0.402393 0.786078 0.800602
470 3 0.3968 0.771587 0.795532
471 4 0.392449 0.790313 0.805355
472 1 0.393692 0.775359 0.774063
473 3 0.411093 0.769139 0.776677
474 5 0.395013 0.714563 0.716098
475 1 0.407986 0.754648 0.764002
476 3 0.427018 0.754714 0.764794
477 4 0.402626 0.747304 0.756714
478 1 0.429038 0.766228 0.747207
479 3 0.421269 0.774433 0.732869
480 4 0.435252 0.759148 0.740711
481 1 0.430747 0.790776 0.738335
482 3 0.438437 0.800106 0.726214
483 4 0.429659 0.797393 0.747762
484 1 0.458091 0.7921 0.726927
485 3 0.467645 0.805399 0.724234
486 4 0.465548 0.784623 0.726214
487 1 0.467102 0.8097 0.746811
488 3 0.453973 0.820089 0.740632
489 4 0.479065 0.809766 0.747128
490 1 0.466713 0.834381 0.740078
491 3 0.482793 0.833388 0.730254
492 4 0.466014 0.840535 0.749822
493 1 0.480696 0.850129 0.720827
494 3 0.493281 0.854893 0.734057
495 4 0.476113 0.858599 0.716232
496 1 0.510137 0.849401 0.720035
497 3 0.52715 0.847747 0.71235
498 4 0.51208 0.840799 0.727402
499 1 0.521401 0.848144 0.691515
500 3 0.520469 0.852974 0.673136
501 4 0.521091 0.837888 0.689614
502 1 0.502758 0.864421 0.676147
503 3 0.507419 0.872097 0.659907
504 4 0.494601 0.86945 0.682009
505 1 0.525752 0.878648 0.66767
506 3 0.5315 0.875802 0.649925
507 4 0.533442 0.883213 0.675275
508 1 0.54424 0.860914 0.655391
509 3 0.540278 0.855356 0.639151
510 4 0.552785 0.85529 0.66157
511 1 0.522256 0.845696 0.645172
512 3 0.51674 0.854298 0.629882
513 5 0.528781 0.773671 0.600108
514 1 0.49732 0.858863 0.640101
515 3 0.4953 0.869979 0.626713
516 4 0.48893 0.860054 0.648736
517 1 0.509594 0.880897 0.634318
518 3 0.516197 0.880236 0.616018
519 4 0.512468 0.887779 0.643508
520 1 0.535928 0.878383 0.622673
521 3 0.538336 0.872759 0.605403
522 4 0.545871 0.878052 0.629169
523 1 0.535229 0.85529 0.610631
524 3 0.525208 0.847548 0.598511
525 4 0.538491 0.846357 0.616177
526 1 0.507807 0.857077 0.600016
527 3 0.500505 0.866737 0.586707
528 4 0.501515 0.851122 0.607066
529 1 0.493047 0.879243 0.59962
530 3 0.495533 0.889764 0.585518
531 4 0.489629 0.883544 0.609998
532 1 0.515342 0.89294 0.590272
533 3 0.517362 0.894925 0.571734
534 4 0.524742 0.894925 0.596926
535 1 0.521557 0.87878 0.565
536 3 0.510448 0.880831 0.550661
537 4 0.527927 0.870376 0.565476
538 1 0.494213 0.87031 0.557633
539 3 0.483026 0.879045 0.547017
540 4 0.486211 0.864157 0.564208
541 1 0.482405 0.893535 0.560247
542 3 0.477822 0.898101 0.54266
543 4 0.484114 0.901211 0.567773
544 1 0.497864 0.90399 0.537669
545 3 0.493358 0.900351 0.519528
546 4 0.508817 0.907762 0.536956
547 1 0.494834 0.882088 0.522063
548 3 0.482017 0.882088 0.508358
549 4 0.497708 0.872692 0.525786
550 1 0.46516 0.883875 0.521904
551 3 0.457314 0.893337 0.508516
552 4 0.45778 0.88189 0.531411
553 1 0.467257 0.90882 0.516042
554 3 0.467102 0.915636 0.498851
555 4 0.470054 0.915437 0.524123
556 1 0.48458 0.907431 0.491088
557 3 0.475491 0.903791 0.475164
558 4 0.496232 0.905909 0.490058
559 1 0.467878 0.88844 0.48277
560 3 0.454983 0.89155 0.470015
561 4 0.465315 0.879905 0.489424
562 1 0.442632 0.902931 0.484275
563 3 0.438359 0.911599 0.468431
564 4 0.437971 0.906901 0.494732
565 1 0.457624 0.920466 0.468272
566 3 0.457702 0.920003 0.448942
567 4 0.466636 0.924701 0.473501
568 1 0.467257 0.90313 0.448626
569 3 0.45576 0.901476 0.433098
570 4 0.472151 0.894329 0.450448
571 1 0.438748 0.895388 0.444665
572 3 0.428649 0.903196 0.432148
573 4 0.432378 0.890492 0.452666
574 1 0.428416 0.918745 0.44411
575 3 0.427251 0.92523 0.426048
576 4 0.430203 0.925296 0.452507
577 1 0.448846 0.923907 0.42272
578 3 0.446438 0.919407 0.404421
579 4 0.460499 0.923774 0.424463
580 1 0.441622 0.902733 0.409095
581 3 0.42795 0.903328 0.395785
582 4 0.442632 0.892675 0.412818
583 1 0.413734 0.911268 0.408857
584 3 0.405422 0.920664 0.395389
585 4 0.40682 0.912592 0.418443
586 1 0.423755 0.932442 0.395944
587 3 0.424532 0.935751 0.377406
588 4 0.430824 0.938861 0.402044
589 1 0.436573 0.9204 0.372891
590 3 0.423988 0.909019 0.370752
591 4 0.447837 0.91643 0.374238
592 1 0.424454 0.909416 0.348016
593 3 0.436184 0.897572 0.349125
594 4 0.425853 0.912062 0.336449
595 1 0.420726 0.884206 0.351264
596 3 0.432689 0.872759 0.344847
597 4 0.40985 0.879706 0.352769
598 1 0.431756 0.877456 0.323536
599 3 0.430047 0.892874 0.317357
600 4 0.42461 0.873354 0.314505
601 1 0.451177 0.893602 0.310544
602 3 0.465393 0.884404 0.313317
603 4 0.452731 0.902402 0.316407
604 1 0.47689 0.889499 0.295334
605 3 0.483959 0.901145 0.306504
606 4 0.479298 0.89294 0.284401
607 1 0.498718 0.889168 0.315297
608 3 0.485124 0.88844 0.328527
609 4 0.506719 0.896447 0.311653
610 1 0.497631 0.895454 0.344767
611 3 0.485512 0.905975 0.350551
612 4 0.507652 0.891418 0.350947
613 1 0.49934 0.918745 0.357205
614 3 0.509827 0.926553 0.344134
615 4 0.504855 0.917224 0.368375
616 1 0.504933 0.943492 0.351422
617 3 0.495533 0.940978 0.335419
618 5 0.501748 0.880967 0.330586
619 1 0.50501 0.954344 0.324566
620 3 0.516585 0.943162 0.317516
621 4 0.507419 0.963806 0.323061
622 1 0.506719 0.94164 0.298582
623 3 0.509594 0.945742 0.279965
624 4 0.498641 0.934626 0.292878
625 1 0.521168 0.961358 0.284639
626 3 0.52948 0.958843 0.267765
627 4 0.527228 0.968504 0.290977
628 1 0.545327 0.949117 0.274578
629 3 0.549988 0.935949 0.264834
630 4 0.555348 0.94905 0.28147
631 1 0.529946 0.92781 0.268716
632 3 0.513789 0.929531 0.258655
633 4 0.523499 0.924502 0.277905
634 1 0.521091 0.922517 0.240038
635 3 0.509982 0.911335 0.247089
636 4 0.527927 0.917025 0.232195
637 1 0.491882 0.91729 0.236394
638 3 0.490406 0.913915 0.21746
639 4 0.484036 0.924833 0.23782
640 1 0.484347 0.896116 0.220946
641 3 0.467645 0.892344 0.227046
642 4 0.490639 0.887845 0.22356
643 1 0.459256 0.893999 0.206211
644 3 0.456149 0.908423 0.214291
645 4 0.454206 0.884603 0.208746
646 1 0.434398 0.906107 0.215321
647 3 0.43432 0.921194 0.221738
648 4 0.433543 0.903527 0.226887
649 1 0.434708 0.928472 0.20122
650 3 0.42997 0.941573 0.208587
651 4 0.437971 0.929928 0.189733
652 1 0.410782 0.926553 0.197893
653 3 0.409772 0.916959 0.213499
654 4 0.400528 0.931781 0.194724
655 1 0.402004 0.902203 0.200903
656 3 0.416686 0.895123 0.19211
657 4 0.391983 0.900285 0.195041
658 1 0.414356 0.878714 0.202804
659 3 0.408063 0.876133 0.185455
660 4 0.410161 0.870906 0.209221
661 1 0.427329 0.869384 0.178008
662 3 0.417618 0.855819 0.178801
663 4 0.439136 0.867267 0.177137
664 1 0.414045 0.855753 0.156144
665 3 0.421114 0.843446 0.145528
666 4 0.404956 0.858532 0.148855
667 1 0.439913 0.852379 0.141567
668 3 0.445584 0.843049 0.155906
669 4 0.447992 0.859326 0.13927
670 1 0.455294 0.830609 0.142914
671 3 0.472928 0.830146 0.149014
672 4 0.452808 0.821346 0.137368
673 1 0.479453 0.839476 0.130476
674 3 0.487687 0.844571 0.146716
675 4 0.480929 0.846159 0.121128
676 1 0.506953 0.836366 0.142201
677 3 0.50905 0.852445 0.138319
678 4 0.516274 0.831536 0.136814
679 1 0.519692 0.855819 0.156777
680 3 0.531966 0.852511 0.170562
681 4 0.511458 0.860584 0.162877
682 1 0.547503 0.862569 0.160184
683 3 0.541133 0.874016 0.17175
684 4 0.552707 0.867465 0.150915
685 1 0.555271 0.86945 0.188703
686 3 0.574458 0.87428 0.18696
687 4 0.555038 0.862899 0.198051
688 1 0.571972 0.890359 0.192743
689 3 0.578808 0.887448 0.21033
690 4 0.567778 0.90002 0.194882
691 1 0.598773 0.890161 0.205736
692 3 0.612678 0.895719 0.194249
693 4 0.603045 0.880831 0.207558
694 1 0.60522 0.907894 0.218411
695 3 0.58914 0.911467 0.209221
696 4 0.612056 0.915834 0.22158
697 1 0.577643 0.912327 0.227838
698 3 0.582692 0.927678 0.229977
699 4 0.573526 0.909747 0.239087
700 1 0.565059 0.933501 0.219599
701 3 0.548668 0.931053 0.229264
702 4 0.562806 0.933832 0.207558
703 1 0.546726 0.948653 0.236315
704 3 0.536394 0.950109 0.220708
705 4 0.550532 0.957983 0.240276
706 1 0.516896 0.951036 0.229422
707 3 0.522411 0.966122 0.225937
708 4 0.508662 0.951168 0.238929
709 1 0.50703 0.96943 0.211281
710 3 0.497475 0.972143 0.227046
711 5 0.510604 0.902796 0.188263
712 1 0.493203 0.990075 0.222134
713 3 0.477744 0.987296 0.232512
714 4 0.493591 0.999735 0.21746
715 1 0.467412 0.978892 0.215163
716 3 0.475336 0.967313 0.20526
717 4 0.459722 0.98359 0.207875
718 1 0.470675 0.954542 0.220946
719 3 0.454673 0.951234 0.230215
720 4 0.480851 0.954013 0.227125
721 1 0.456692 0.932905 0.225382
722 3 0.459411 0.93542 0.244237
723 5 0.46314 0.857686 0.206267
724 1 0.441234 0.925362 0.249624
725 3 0.449623 0.910805 0.249782
726 4 0.429659 0.924899 0.248752
727 1 0.453663 0.911467 0.271805
728 3 0.448846 0.898366 0.2825
729 4 0.461897 0.915106 0.279648
730 1 0.42795 0.90227 0.282738
731 3 0.418784 0.912129 0.271489
732 4 0.427872 0.903924 0.294383
733 1 0.400218 0.902137 0.272598
734 3 0.397654 0.91193 0.287491
735 4 0.391906 0.894594 0.273548
736 1 0.382972 0.922186 0.276717
737 3 0.370465 0.911401 0.283055
738 4 0.376991 0.927016 0.267686
739 1 0.36728 0.91987 0.302781
740 3 0.363163 0.935486 0.305157
741 4 0.373883 0.918547 0.313
742 1 0.341257 0.931714 0.309039
743 3 0.33613 0.920267 0.321477
744 4 0.334188 0.933038 0.299612
745 1 0.322302 0.93231 0.332568
746 3 0.326264 0.921061 0.343975
747 4 0.312126 0.926884 0.330587
748 1 0.342189 0.930722 0.354749
749 3 0.328284 0.933898 0.368217
750 4 0.350734 0.938 0.356096
751 1 0.334032 0.918812 0.3801
752 3 0.350113 0.923179 0.388576
753 4 0.334809 0.908159 0.379783
754 1 0.340713 0.925892 0.408065
755 3 0.342267 0.918812 0.425255
756 4 0.335664 0.934692 0.412105
757 1 0.332945 0.902799 0.418918
758 3 0.339393 0.897704 0.435554
759 4 0.326808 0.89605 0.412026
760 1 0.359046 0.894396 0.428583
761 3 0.364717 0.899755 0.445298
762 4 0.366659 0.891087 0.420819
763 1 0.368601 0.91729 0.437852
764 3 0.365105 0.921657 0.455676
765 4 0.371242 0.92609 0.432068
766 1 0.343898 0.920069 0.455518
767 3 0.346462 0.914908 0.473342
768 4 0.332401 0.920069 0.452111
769 1 0.349103 0.89691 0.468748
770 3 0.360289 0.897836 0.483403
771 4 0.349802 0.887448 0.463123
772 1 0.377146 0.903659 0.47152
773 3 0.381962 0.910342 0.488077
774 4 0.38437 0.90571 0.462251
775 1 0.36829 0.925627 0.485463
776 3 0.368057 0.92609 0.503921
777 5 0.369766 0.866012 0.453635
778 1 0.350812 0.914775 0.50511
779 3 0.354851 0.905578 0.519766
780 4 0.33947 0.913121 0.50202
781 1 0.36829 0.894065 0.508595
782 3 0.379243 0.895322 0.524281
783 4 0.374039 0.88811 0.500515
784 1 0.390119 0.910276 0.51731
785 3 0.392915 0.911136 0.535372
786 4 0.394702 0.917621 0.51018
787 1 0.373417 0.919936 0.539888
788 3 0.375282 0.913386 0.557395
789 4 0.362309 0.923642 0.53759
790 1 0.371009 0.896711 0.55185
791 3 0.383361 0.892013 0.564921
792 4 0.366115 0.888374 0.546384
793 1 0.400373 0.894396 0.552008
794 3 0.408063 0.900615 0.568328
795 4 0.408141 0.892874 0.542185
796 1 0.402626 0.917885 0.564208
797 3 0.403325 0.918613 0.583142
798 4 0.400839 0.926024 0.557633
799 1 0.382273 0.913121 0.586152
800 3 0.388721 0.907894 0.603026
801 4 0.370698 0.910938 0.584093
802 1 0.396722 0.892411 0.594233
803 3 0.40985 0.893271 0.607146
804 4 0.397421 0.883941 0.586865
805 1 0.424066 0.901806 0.593203
806 3 0.431989 0.907563 0.608809
807 4 0.429737 0.905379 0.582825
808 1 0.419871 0.922451 0.609047
809 3 0.42562 0.925693 0.626555
810 4 0.411947 0.929862 0.605561
811 1 0.414123 0.913717 0.638042
812 3 0.428028 0.909813 0.649053
813 4 0.403558 0.90968 0.641052
814 1 0.436184 0.897373 0.634398
815 3 0.452187 0.902468 0.641844
816 4 0.436262 0.891087 0.624257
817 1 0.45444 0.916099 0.628139
818 3 0.465315 0.920201 0.642557
819 4 0.452031 0.922649 0.618633
820 1 0.449235 0.929796 0.652381
821 3 0.458168 0.924965 0.667908
822 4 0.439214 0.935023 0.655629
823 1 0.448691 0.907629 0.669017
824 3 0.464849 0.903791 0.677573
825 4 0.442632 0.899424 0.667512
826 1 0.476035 0.902402 0.658164
827 3 0.490717 0.908291 0.668225
828 4 0.478832 0.899755 0.646518
829 1 0.48559 0.925825 0.665214
830 3 0.491727 0.927149 0.683039
831 4 0.481861 0.934361 0.660303
832 1 0.473705 0.923113 0.693496
833 3 0.483959 0.918613 0.707597
834 4 0.462596 0.921922 0.697774
835 1 0.491105 0.902997 0.697299
836 3 0.50905 0.905776 0.703715
837 4 0.490717 0.894594 0.689773
838 1 0.514643 0.916099 0.68597
839 3 0.52614 0.923377 0.697853
840 4 0.515653 0.919738 0.674721
841 1 0.511536 0.936412 0.703557
842 3 0.505166 0.927678 0.717975
843 4 0.505477 0.944088 0.699517
844 1 0.513556 0.940382 0.73374
845 3 0.510137 0.92609 0.741662
846 4 0.503224 0.945544 0.736592
847 1 0.529636 0.926487 0.753387
848 3 0.521557 0.914842 0.762101
849 4 0.539812 0.929796 0.758378
850 1 0.51006 0.924171 0.776757
851 3 0.491261 0.922054 0.778658
852 4 0.509749 0.930523 0.786897
853 1 0.487843 0.921988 0.755446
854 3 0.479375 0.935288 0.761705
855 4 0.481784 0.913187 0.757981
856 1 0.465626 0.935618 0.744356
857 3 0.455061 0.92695 0.756159
858 4 0.462518 0.936346 0.732869
859 1 0.441156 0.941441 0.758298
860 3 0.42795 0.933832 0.747841
861 4 0.436806 0.950969 0.756714
862 1 0.423056 0.921591 0.76321
863 3 0.40783 0.918745 0.752594
864 4 0.423367 0.917224 0.774063
865 1 0.396955 0.93403 0.758774
866 3 0.391051 0.931648 0.74087
867 4 0.394314 0.943095 0.764636
868 1 0.407442 0.942367 0.731918
869 3 0.406432 0.933435 0.716628
870 4 0.415521 0.949646 0.730809
871 1 0.418628 0.9204 0.725343
872 3 0.408063 0.910077 0.715519
873 4 0.427095 0.916099 0.732156
874 1 0.39175 0.91021 0.729145
875 3 0.378622 0.910474 0.716074
876 5 0.401927 0.836363 0.684174
877 1 0.378234 0.927546 0.713618
878 3 0.374349 0.925164 0.695793
879 4 0.377612 0.937603 0.716391
880 1 0.396489 0.922782 0.690565
881 3 0.393148 0.909747 0.680345
882 4 0.408063 0.92523 0.690644
883 1 0.392838 0.897836 0.696982
884 3 0.381729 0.889367 0.686762
885 4 0.394702 0.893205 0.706963
886 1 0.363552 0.898961 0.692387
887 3 0.356172 0.89691 0.675751
888 4 0.356483 0.905181 0.698487
889 1 0.369922 0.907232 0.664818
890 3 0.369378 0.896314 0.650875
891 4 0.376214 0.915437 0.661966
892 1 0.388254 0.888837 0.657768
893 3 0.383982 0.873751 0.65341
894 4 0.399052 0.88983 0.662679
895 1 0.371631 0.870774 0.670601
896 3 0.361221 0.862436 0.65959
897 4 0.368446 0.870376 0.682088
898 1 0.350656 0.877059 0.650479
899 3 0.352365 0.868524 0.634477
900 4 0.34483 0.885992 0.649291
901 1 0.372019 0.875736 0.628694
902 3 0.376447 0.861841 0.619979
903 4 0.380952 0.881824 0.628139
904 1 0.3787 0.852445 0.638121
905 3 0.371087 0.841196 0.627109
906 5 0.376991 0.782693 0.599697
907 1 0.351123 0.846027 0.631783
908 3 0.348093 0.842387 0.61285
909 4 0.340946 0.847615 0.637883
910 1 0.350812 0.859393 0.604928
911 3 0.356716 0.850725 0.589638
912 4 0.352365 0.869649 0.604294
913 1 0.37769 0.849269 0.597005
914 3 0.378622 0.835307 0.588291
915 4 0.387633 0.85132 0.603581
916 1 0.367902 0.826375 0.605244
917 3 0.363163 0.815722 0.592411