LAMMPS protain data file

        8634  atoms
       11502  bonds
           0  angles
           0  dihedrals
           0  impropers

           5  atom types
           5  bond types
           0  angle types
           0  dihedral types
           0  improper types

-200.0	200.0	xlo xhi
-200.0	200.0	ylo yhi
-200.0	200.0	zlo zhi

Masses

           1	27.0
           2	14.0
           3	28.0
           4	60.0
           5	60.0

Atoms

           1	1	1	1	0.0	62.69	138.2	110.92
           2	1	1	3	0.0	63.37	136.94	109.15
           3	1	1	4	0.0	61.15	138.31	110.78
           4	1	2	1	0.0	64.12	134.71	110.69001
           5	1	2	3	0.0	62.5	132.97	111.18
           6	1	2	4	0.0	65.12	134.05	111.68
           7	1	3	1	0.0	61.53	132.9	108.53
           8	1	3	3	0.0	62.8	133.2	106.55
           9	1	3	4	0.0	60.109997	133.6	108.85
          10	1	4	1	0.0	61.77	131.19	105.1
          11	1	4	3	0.0	61.24	131.07	102.759995
          12	1	4	4	0.0	61.81	129.71	105.47
          13	1	5	1	0.0	59.03	132.7	102.9
          14	1	5	3	0.0	59.69	133.44	100.73999
          15	1	5	4	0.0	57.699997	133.32	103.31
          16	1	6	1	0.0	61.730003	135.09	101.65
          17	1	6	3	0.0	62.939995	134.26	99.83001
          18	1	6	4	0.0	62.580006	136.25	102.35
          19	1	7	1	0.0	64.21	132.16	101.17
          20	1	7	3	0.0	64.2	130.97	99.05
          21	1	7	4	0.0	64.82	131.34	102.24
          22	1	8	1	0.0	61.46	130.16	99.37
          23	1	8	3	0.0	61.34	130.51	97.05999
          24	1	8	4	0.0	60.14	129.66	100.09999
          25	1	9	1	0.0	60.71	133.24	97.12
          26	1	9	3	0.0	61.98	133.61	95.11
          27	1	9	4	0.0	60.06	134.57	97.65
          28	1	10	1	0.0	64.47	133.99	96.44
          29	1	10	3	0.0	65.2	132.9	94.35
          30	1	10	4	0.0	65.58	134.22	97.52
          31	1	11	1	0.0	64.82	130.34	95.340004
          32	1	11	3	0.0	64.28	129.89	92.97
          33	1	11	4	0.0	64.56	129.16	96.25
          34	1	12	1	0.0	61.630005	130.94	93.12
          35	1	12	3	0.0	61.950005	131.55	90.82001
          36	1	12	4	0.0	60.16	131.13	93.67
          37	1	13	1	0.0	63.12	134.08	91.36
          38	1	13	3	0.0	64.82	133.93	89.62999
          39	1	13	4	0.0	63.24	135.52	91.86
          40	1	14	1	0.0	66.58	132.4	91.08999
          41	1	14	3	0.0	67.08	130.92	89.17999
          42	1	14	4	0.0	67.47	131.93	92.24
          43	1	15	1	0.0	64.97	129.18	89.560005
          44	1	15	3	0.0	65.1	128.79	87.24
          45	1	15	4	0.0	63.88	128.44	90.31
          46	1	16	1	0.0	63.31	130.94	86.56
          47	1	16	3	0.0	64.45	130.78	84.38
          48	1	16	4	0.0	62.26	132.04	86.54
          49	1	17	1	0.0	66.77	132.05	85.16
          50	1	17	3	0.0	68.08	130.72	83.77
          51	1	17	4	0.0	67.67	133.2	85.73
          52	1	18	1	0.0	68.15	128.6	85.55
          53	1	18	3	0.0	67.89	127.18	83.68
          54	1	18	4	0.0	68.31	127.79	86.81
          55	1	19	1	0.0	65.08	127.13	83.71
          56	1	19	3	0.0	65.08	126.97	81.31
          57	1	19	4	0.0	63.62	127.13	84.27
          58	1	20	1	0.0	65.53	129.73	80.98
          59	1	20	3	0.0	67.08	129.26	79.16
          60	1	20	4	0.0	65.43	131.19	81.22
          61	1	21	1	0.0	69.26	128.77	80.79
          62	1	21	3	0.0	69.67	127.020004	79.18
          63	1	21	4	0.0	70.33	128.87	81.76
          64	1	22	1	0.0	68.26	125.14	80.36
          65	1	22	3	0.0	67.81	124.33	78.17
          66	1	22	4	0.0	67.71	124.21999	81.4
          67	1	23	1	0.0	65.68	126.08	77.75
          68	1	23	3	0.0	66.54	126.09	75.45
          69	1	23	4	0.0	64.6	127.12	78.13
          70	1	24	1	0.0	68.46	128.07	75.98
          71	1	24	3	0.0	69.68	126.91	74.3
          72	1	24	5	0.0	67.39	121.08811461	70.58278775
          73	1	25	1	0.0	70.73	125.0	75.96
          74	1	25	3	0.0	70.37	123.649994	73.98
          75	1	25	4	0.0	71.22	124.08	77.15
          76	1	26	1	0.0	67.84	122.83	74.54
          77	1	26	3	0.0	67.43	122.68	72.19
          78	1	26	4	0.0	66.41	122.48	75.12
          79	1	27	1	0.0	67.22	125.549995	71.8
          80	1	27	3	0.0	68.33	125.21	69.75
          81	1	27	4	0.0	66.89	127.07	72.14
          82	1	28	1	0.0	70.91	125.37	70.96
          83	1	28	3	0.0	71.83	123.62	69.46
          84	1	28	4	0.0	72.06	126.06	71.77
          85	1	29	1	0.0	70.94	121.51	71.12
          86	1	29	3	0.0	70.52	120.34	68.98
          87	1	29	4	0.0	70.6	120.72001	72.4
          88	1	30	1	0.0	67.85	121.05999	68.82
          89	1	30	3	0.0	67.04	121.490005	66.55
          90	1	30	4	0.0	66.44	121.05	69.51
          91	1	31	1	0.0	68.87	123.68	66.24
          92	1	31	3	0.0	69.7	123.29	64.04
          93	1	31	4	0.0	69.62	124.94	66.63
          94	1	32	1	0.0	71.39	121.16001	64.68
          95	1	32	3	0.0	69.81	119.23	64.82
          96	1	32	4	0.0	72.62	120.59	65.44
          97	1	33	1	0.0	70.1	118.62	62.1
          98	1	33	3	0.0	72.21	117.42999	62.07
          99	1	33	4	0.0	69.86	119.12	60.66
         100	1	34	1	0.0	70.93	114.95	62.31
         101	1	34	3	0.0	71.71	113.17	60.900005
         102	1	34	4	0.0	70.1	114.03	63.31
         103	1	35	1	0.0	71.34	114.8	58.489998
         104	1	35	3	0.0	73.7	114.76999	58.98
         105	1	35	4	0.0	70.85	115.99	57.539997
         106	1	36	1	0.0	74.11	113.05999	56.56
         107	1	36	3	0.0	75.68	114.83	56.76
         108	1	36	4	0.0	73.99	112.73999	55.07
         109	1	37	1	0.0	77.89	113.13	57.4
         110	1	37	3	0.0	79.06	114.89001	58.71
         111	1	37	4	0.0	78.58	113.62999	56.109997
         112	1	38	1	0.0	77.23	114.86	60.76
         113	1	38	3	0.0	78.66	116.3	62.04
         114	1	38	4	0.0	76.2	114.08	61.8
         115	1	39	1	0.0	80.56	114.42	62.5
         116	1	39	3	0.0	82.84	115.24	62.54
         117	1	39	4	0.0	80.94	113.04001	63.000004
         118	1	40	1	0.0	82.64	116.16999	59.890003
         119	1	40	3	0.0	82.98	118.29	58.780003
         120	1	40	4	0.0	82.85	115.43	58.55
         121	1	41	1	0.0	81.29	119.74	60.620003
         122	1	41	3	0.0	80.91	119.35	62.95
         123	1	41	4	0.0	80.1	120.16	59.75
         124	1	42	1	0.0	81.27	122.06999	63.8
         125	1	42	3	0.0	80.0	121.85	65.83
         126	1	42	4	0.0	81.52	123.56	63.83
         127	1	43	1	0.0	77.6	122.02	64.49
         128	1	43	3	0.0	76.93	121.23001	66.66
         129	1	43	4	0.0	76.48	122.08	63.419994
         130	1	44	1	0.0	77.62	118.54	66.17
         131	1	44	3	0.0	78.02	118.41	68.51
         132	1	44	4	0.0	77.92	117.36001	65.25
         133	1	45	1	0.0	80.56	119.45	68.38
         134	1	45	3	0.0	79.69	120.39	70.49
         135	1	45	4	0.0	81.97	119.8	67.85
         136	1	46	1	0.0	78.81	122.73	69.39
         137	1	46	3	0.0	77.31	122.73	71.21
         138	1	46	4	0.0	78.42	123.82	68.32
         139	1	47	1	0.0	75.63	120.729996	70.17
         140	1	47	3	0.0	75.59	119.82	72.42
         141	1	47	4	0.0	74.63	119.95	69.24
         142	1	48	1	0.0	77.76	118.27	72.32
         143	1	48	3	0.0	78.14	118.66	74.61
         144	1	48	4	0.0	78.88	117.36001	71.8
         145	1	49	1	0.0	79.27	121.23001	74.1
         146	1	49	3	0.0	78.05	122.03	76.0
         147	1	49	4	0.0	79.98	122.34	73.28
         148	1	50	1	0.0	75.69	122.56	74.66
         149	1	50	3	0.0	74.47	121.810005	76.63
         150	1	50	4	0.0	74.62	122.95	73.59
         151	1	51	1	0.0	74.72	119.14001	76.21
         152	1	51	3	0.0	75.02	119.07	78.58
         153	1	51	4	0.0	74.73	117.64	75.73
         154	1	52	1	0.0	77.66	119.84999	78.68
         155	1	52	3	0.0	77.03	120.87	80.71
         156	1	52	4	0.0	79.2	120.0	78.43
         157	1	53	1	0.0	76.24	123.38	79.61
         158	1	53	3	0.0	74.78	123.41	81.52
         159	1	53	4	0.0	75.94	124.49	78.52
         160	1	54	1	0.0	72.98	121.58	80.51
         161	1	54	3	0.0	72.58	120.65	82.72
         162	1	54	4	0.0	72.03	120.91001	79.51
         163	1	55	1	0.0	74.81	118.83999	82.57
         164	1	55	3	0.0	75.32	119.16	84.88
         165	1	55	4	0.0	75.85	117.87999	81.96
         166	1	56	1	0.0	76.55	121.66	84.61
         167	1	56	3	0.0	75.47	122.31999	86.56
         168	1	56	4	0.0	77.7	122.61	84.18
         169	1	57	1	0.0	73.26	123.48	85.22
         170	1	57	3	0.0	72.06	123.04	87.3
         171	1	57	5	0.0	74.4	116.90597185	79.69905658
         172	1	58	1	0.0	71.81	120.28	86.74
         173	1	58	3	0.0	72.37	119.079994	88.81
         174	1	58	4	0.0	71.04	119.11	86.06
         175	1	59	1	0.0	75.03	119.84	88.93
         176	1	59	3	0.0	74.86	120.93	91.12
         177	1	59	4	0.0	76.49	119.7	88.36
         178	1	60	1	0.0	74.75	123.46001	90.21
         179	1	60	3	0.0	73.39	124.0	92.13
         180	1	60	4	0.0	75.26	124.73999	89.54
         181	1	61	1	0.0	71.05	123.73	90.75
         182	1	61	3	0.0	70.16	123.69	92.93
         183	1	61	4	0.0	69.92	123.57	89.66
         184	1	62	1	0.0	70.3	121.26	93.67
         185	1	62	3	0.0	70.6	122.12001	95.90001
         186	1	62	4	0.0	70.43	119.73	93.69
         187	1	63	1	0.0	73.41	122.38999	95.64
         188	1	63	3	0.0	73.18	124.409996	97.0
         189	1	63	4	0.0	74.86	122.01	95.15
         190	1	64	1	0.0	72.78	126.25001	94.88
         191	1	64	3	0.0	71.27	127.35	96.409996
         192	1	64	4	0.0	72.91	126.91	93.46
         193	1	65	1	0.0	69.05	125.73	95.89
         194	1	65	3	0.0	68.55	126.189995	98.16
         195	1	65	4	0.0	68.02	125.0	94.99
         196	1	66	1	0.0	69.98	124.09	99.13
         197	1	66	3	0.0	70.52	125.61001	100.93
         198	1	66	4	0.0	70.65	122.66	99.24
         199	1	67	1	0.0	72.52	126.9	99.71001
         200	1	67	3	0.0	71.83	128.68	101.05
         201	1	67	4	0.0	73.66	127.270004	98.67
         202	1	68	1	0.0	69.75	129.6	99.32
         203	1	68	3	0.0	68.93	130.07	101.46
         204	1	68	4	0.0	68.87	129.94	98.12001
         205	1	69	1	0.0	67.54	127.62	101.79
         206	1	69	3	0.0	67.76	127.84999	104.15001
         207	1	69	4	0.0	66.83	126.3	101.41
         208	1	70	1	0.0	70.1	126.29	104.4
         209	1	70	3	0.0	72.51	126.189995	104.24
         210	1	70	4	0.0	70.17	124.7	104.48
         211	1	71	1	0.0	72.92	128.88	105.0
         212	1	71	3	0.0	73.61	127.93	107.05
         213	1	71	5	0.0	71.65	121.73160905	98.02749096
         214	1	72	1	0.0	76.25	127.48	106.25001
         215	1	72	3	0.0	76.76	125.6	107.69
         216	1	72	4	0.0	76.68	128.57	107.31
         217	1	73	1	0.0	74.82	123.90001	106.509995
         218	1	73	3	0.0	76.23	122.11	106.67
         219	1	73	4	0.0	73.48	123.43	105.92
         220	1	74	1	0.0	77.31	122.71	103.99
         221	1	74	3	0.0	77.45	120.37	103.90001
         222	1	74	4	0.0	77.85	123.72	102.98
         223	1	75	1	0.0	75.41	119.83001	102.14
         224	1	75	3	0.0	76.22	117.59	102.06999
         225	1	75	4	0.0	74.55	120.11	100.85999
         226	1	76	1	0.0	78.37	118.18	100.34
         227	1	76	3	0.0	80.3	118.700005	101.810005
         228	1	76	4	0.0	78.94	118.66	98.98
         229	1	77	1	0.0	81.36	116.21	101.57
         230	1	77	3	0.0	82.32	117.28	99.66
         231	1	77	4	0.0	81.43	114.73	101.17
         232	1	78	1	0.0	84.64	118.17	101.19
         233	1	78	3	0.0	85.67	118.46	99.020004
         234	1	78	4	0.0	85.79	118.22	102.26
         235	1	79	1	0.0	85.93001	115.6	98.63
         236	1	79	3	0.0	85.53	115.82	96.31
         237	1	79	4	0.0	86.18	114.14	98.89001
         238	1	80	1	0.0	82.74	116.05	96.45
         239	1	80	3	0.0	82.4	117.98	95.020004
         240	1	80	4	0.0	81.3	115.63	96.89
         241	1	81	1	0.0	82.74	119.91	96.88
         242	1	81	3	0.0	83.59	121.299995	95.079994
         243	1	81	4	0.0	82.79	120.45	98.28
         244	1	82	1	0.0	86.27	120.19	95.44
         245	1	82	3	0.0	86.62	120.52	93.03
         246	1	82	4	0.0	87.340004	119.37	96.09999
         247	1	83	1	0.0	85.12	118.35	92.31
         248	1	83	3	0.0	84.15	119.84	90.54
         249	1	83	4	0.0	84.52	116.96	92.27
         250	1	84	1	0.0	82.07	120.78	92.28999
         251	1	84	3	0.0	81.99	122.86	91.12
         252	1	84	4	0.0	81.01	120.61	93.49999
         253	1	85	1	0.0	84.19	124.05	92.39
         254	1	85	3	0.0	84.99	124.659996	90.18
         255	1	85	4	0.0	85.1	124.670006	93.49999
         256	1	86	1	0.0	86.6	122.41	89.86
         257	1	86	3	0.0	86.48	123.11	87.62
         258	1	86	4	0.0	87.29	121.03	89.93001
         259	1	87	1	0.0	83.95	121.869995	87.079994
         260	1	87	3	0.0	83.8	123.82	85.53
         261	1	87	4	0.0	82.77	120.87	86.99
         262	1	88	1	0.0	83.04	125.67	87.55
         263	1	88	3	0.0	84.38	127.19	86.02
         264	1	88	4	0.0	82.58	126.31	88.83
         265	1	89	1	0.0	86.85	126.57001	87.23
         266	1	89	3	0.0	87.72	126.95999	84.96
         267	1	89	4	0.0	88.0	126.23	88.21999
         268	1	90	1	0.0	87.270004	124.33	84.05
         269	1	90	3	0.0	86.78	125.35	81.93
         270	1	90	4	0.0	87.2	122.73	84.11
         271	1	91	1	0.0	84.11	125.89	82.57
         272	1	91	3	0.0	84.43	127.91	81.28
         273	1	91	4	0.0	82.66	125.71	82.99
         274	1	92	1	0.0	85.55	129.45	83.28
         275	1	92	3	0.0	86.98	130.28	81.58
         276	1	92	4	0.0	85.84	130.17	84.55
         277	1	93	1	0.0	88.8	128.35	81.9
         278	1	93	3	0.0	89.17	128.94	79.61
         279	1	93	4	0.0	89.619995	127.18	82.28
         280	1	94	1	0.0	87.43	127.06	78.54
         281	1	94	3	0.0	86.88	128.53	76.78
         282	1	94	4	0.0	86.63999	125.74999	78.46
         283	1	95	1	0.0	85.28	130.33	78.35
         284	1	95	3	0.0	86.31	132.08	77.18
         285	1	95	4	0.0	84.23	130.87	79.31
         286	1	96	1	0.0	88.36	132.42	78.82
         287	1	96	3	0.0	89.76	132.88	76.91
         288	1	96	4	0.0	89.13	132.39	80.14
         289	1	97	1	0.0	90.51999	130.31	76.56
         290	1	97	3	0.0	90.4	130.77	74.19
         291	1	97	4	0.0	90.97	128.85	76.84
         292	1	98	1	0.0	87.67	130.15	73.93
         293	1	98	3	0.0	87.58001	131.88	72.3
         294	1	98	4	0.0	86.24	129.55	74.09
         295	1	99	1	0.0	87.31	134.01	74.11
         296	1	99	3	0.0	88.57	135.47	72.72
         297	1	99	4	0.0	86.95999	134.65	75.52
         298	1	100	1	0.0	91.03	134.38	73.58
         299	1	100	3	0.0	91.55	134.49	71.26
         300	1	100	4	0.0	92.27	133.92	74.31
         301	1	101	1	0.0	90.83999	131.97	70.62
         302	1	101	3	0.0	90.29	132.73	68.45
         303	1	101	4	0.0	90.450005	130.48	70.73
         304	1	102	1	0.0	87.82	133.69	69.02
         305	1	102	3	0.0	88.25	135.59	67.57
         306	1	102	4	0.0	86.3	133.59	69.38
         307	1	103	1	0.0	89.30999	137.3	69.52
         308	1	103	3	0.0	90.65	138.15	67.87
         309	1	103	4	0.0	89.68001	138.02	70.92
         310	1	104	1	0.0	92.77	136.44	68.4
         311	1	104	3	0.0	93.30999	137.03	66.12
         312	1	104	4	0.0	93.619995	135.23	68.84
         313	1	105	1	0.0	91.18	135.18	65.15
         314	1	105	3	0.0	90.71	136.6	63.34
         315	1	105	4	0.0	90.28	133.91	65.19
         316	1	106	1	0.0	89.13	138.34	64.82
         317	1	106	3	0.0	90.04	140.22	63.539997
         318	1	106	4	0.0	87.98	138.85	65.83
         319	1	107	1	0.0	92.23	140.55	65.42
         320	1	107	3	0.0	93.54	141.25	63.539997
         321	1	107	4	0.0	93.07	140.63	66.75
         322	1	108	1	0.0	94.380005	138.97	62.79
         323	1	108	3	0.0	94.15	139.69	60.56
         324	1	108	4	0.0	95.29	137.72	62.900005
         325	1	109	1	0.0	91.52999	138.88	60.26
         326	1	109	3	0.0	91.31	140.72	58.71
         327	1	109	4	0.0	90.12001	138.27	60.42
         328	1	110	1	0.0	90.74	142.71	60.63
         329	1	110	3	0.0	91.96999	144.62	59.82
         330	1	110	4	0.0	90.01	143.31	61.87
         331	1	111	1	0.0	94.43	143.54	60.42
         332	1	111	3	0.0	96.19	143.31	58.809998
         333	1	111	4	0.0	95.48	143.35	61.570004
         334	1	112	1	0.0	94.9	141.24	57.379997
         335	1	112	3	0.0	96.71	142.19	56.13
         336	1	112	4	0.0	94.06999	139.97	57.14
         337	1	113	1	0.0	93.41	142.44	54.73
         338	1	113	3	0.0	92.65	143.86	56.51
         339	1	113	4	0.0	93.22	143.09	53.34
         340	1	114	1	0.0	89.94999	142.69	56.32
         341	1	114	3	0.0	89.49999	140.41	56.01
         342	1	114	4	0.0	88.979996	143.76	55.74
         343	1	115	1	0.0	87.45	140.27	57.97
         344	1	115	3	0.0	86.61	138.46	56.66
         345	1	115	4	0.0	86.55	140.59	59.11
         346	1	116	1	0.0	85.36	140.09	54.82
         347	1	116	3	0.0	85.93001	138.28	53.29
         348	1	116	4	0.0	84.65	141.23	54.049995
         349	1	117	1	0.0	88.43	139.18	52.56
         350	1	117	3	0.0	89.1	136.8	52.61
         351	1	117	4	0.0	89.549995	140.16	52.08
         352	1	118	1	0.0	89.83	136.76	55.27
         353	1	118	3	0.0	89.26	134.36	55.259995
         354	1	118	4	0.0	90.19999	137.18	56.680004
         355	1	119	1	0.0	86.50001	134.91	55.71
         356	1	119	3	0.0	86.189995	134.01	53.53
         357	1	119	4	0.0	85.21	135.71	56.15
         358	1	120	1	0.0	86.27	131.36	54.32
         359	1	120	3	0.0	84.64	129.72	53.56
         360	1	120	4	0.0	87.62	130.73	54.580006
         361	1	121	1	0.0	83.79	129.01	56.209995
         362	1	121	3	0.0	85.41	128.44	57.75
         363	1	121	4	0.0	83.69	127.75	55.319996
         364	1	122	1	0.0	83.85	127.6	59.75
         365	1	122	3	0.0	83.75	125.46	60.809998
         366	1	122	4	0.0	83.25	128.21	61.01
         367	1	123	1	0.0	82.69	124.19	58.55
         368	1	123	3	0.0	83.06	122.41	60.1
         369	1	123	4	0.0	82.26	123.84999	57.09
         370	1	124	1	0.0	85.76	122.09	59.570004
         371	1	124	3	0.0	87.37	122.21	61.36
         372	1	124	4	0.0	86.9	121.71	58.620003
         373	1	125	1	0.0	86.62	124.57	62.38
         374	1	125	3	0.0	86.50001	124.77	64.78
         375	1	125	4	0.0	86.27	126.12001	62.2
         376	1	126	1	0.0	86.06999	122.08	65.29
         377	1	126	3	0.0	87.31	121.49999	67.27
         378	1	126	4	0.0	85.08	120.82	65.15
         379	1	127	1	0.0	89.65	120.9	66.02
         380	1	127	3	0.0	91.08999	121.54	67.85
         381	1	127	4	0.0	90.700005	120.21	65.0
         382	1	128	1	0.0	90.41	124.3	67.67
         383	1	128	3	0.0	90.12001	124.65	69.99
         384	1	128	4	0.0	90.48	125.77	67.18
         385	1	129	1	0.0	87.42	123.7	70.11
         386	1	129	3	0.0	88.01	122.83999	72.22
         387	1	129	4	0.0	85.94	123.42	69.71
         388	1	130	1	0.0	89.15	120.43	71.04
         389	1	130	3	0.0	90.700005	120.3	72.79
         390	1	130	4	0.0	89.23001	119.36	69.93
         391	1	131	1	0.0	92.51	122.15	71.52
         392	1	131	3	0.0	93.07	122.88	73.64
         393	1	131	4	0.0	93.34	122.78	70.4
         394	1	132	1	0.0	90.83	124.75	73.69
         395	1	132	3	0.0	91.06	123.96	76.01
         396	1	132	4	0.0	89.59	125.619995	73.31
         397	1	133	1	0.0	89.27	121.94	75.76
         398	1	133	3	0.0	90.65	121.15	77.52
         399	1	133	4	0.0	88.15001	120.95	75.22
         400	1	134	1	0.0	92.48	119.93	75.8
         401	1	134	3	0.0	93.9	120.05	77.74
         402	1	134	4	0.0	93.23001	119.41	74.59
         403	1	135	1	0.0	94.65	122.73	77.29
         404	1	135	3	0.0	94.439995	123.44	79.64
         405	1	135	4	0.0	95.27999	123.84999	76.57
         406	1	136	1	0.0	91.73	124.15001	79.41
         407	1	136	3	0.0	91.58001	123.55	81.73
         408	1	136	4	0.0	90.33	124.58	79.01
         409	1	137	1	0.0	91.68	120.78	81.18
         410	1	137	3	0.0	92.95	120.61	83.21
         411	1	137	4	0.0	91.39	119.39	80.71
         412	1	138	1	0.0	95.340004	121.17	82.04
         413	1	138	3	0.0	95.63	122.36	84.21
         414	1	138	5	0.0	94.1	112.90664681	76.89111776
         415	1	139	1	0.0	95.20999	124.87	83.08
         416	1	139	3	0.0	94.81	125.72	85.3
         417	1	139	4	0.0	94.759995	125.9	82.06
         418	1	140	1	0.0	92.3	124.41999	85.5
         419	1	140	3	0.0	92.47001	123.71001	87.72
         420	1	140	4	0.0	90.85	123.99	85.02
         421	1	141	1	0.0	94.08	121.59	87.42
         422	1	141	3	0.0	94.75	121.89	89.74999
         423	1	141	4	0.0	94.9	120.41999	86.87
         424	1	142	1	0.0	96.49	123.96999	89.45
         425	1	142	3	0.0	96.06	125.0	91.52
         426	1	142	4	0.0	97.64	124.77	88.8
         427	1	143	1	0.0	93.86	126.42	90.63
         428	1	143	3	0.0	93.51	126.68	92.83
         429	1	143	4	0.0	92.920006	127.3	89.74
         430	1	144	1	0.0	91.90001	124.56	93.34
         431	1	144	3	0.0	93.02	124.23	95.37
         432	1	144	4	0.0	90.95	123.36	93.02
         433	1	145	1	0.0	95.19	122.89001	94.22
         434	1	145	3	0.0	96.79001	123.7	95.84
         435	1	145	4	0.0	95.89	121.86	93.26
         436	1	146	1	0.0	96.920006	126.28	94.67
         437	1	146	3	0.0	96.83	127.37	96.8
         438	1	146	4	0.0	97.0	127.29	93.48001
         439	1	147	1	0.0	94.06	127.020004	97.17999
         440	1	147	3	0.0	94.58	126.63999	99.49
         441	1	147	5	0.0	94.87	119.70689222	91.40519435
         442	1	148	1	0.0	94.94001	123.88	99.05
         443	1	148	3	0.0	96.600006	123.93	100.729996
         444	1	148	4	0.0	94.85	122.4	98.51999
         445	1	149	1	0.0	98.63	125.10999	98.92
         446	1	149	3	0.0	99.38	126.49	100.69
         447	1	149	4	0.0	99.37	125.35	97.6
         448	1	150	1	0.0	97.45	128.49	100.38
         449	1	150	3	0.0	97.619995	128.27	102.83999
         450	1	150	4	0.0	96.52	129.48	99.6
         451	1	151	1	0.0	95.22	126.81	103.17
         452	1	151	3	0.0	93.83	125.2	101.94
         453	1	151	4	0.0	94.23	127.87	103.71001
         454	1	152	1	0.0	94.38999	122.99	103.44
         455	1	152	3	0.0	92.53999	121.69	104.14
         456	1	152	4	0.0	95.329994	121.86	103.87
         457	1	153	1	0.0	91.29	123.79	105.53
         458	1	153	3	0.0	89.04001	124.600006	105.17
         459	1	153	4	0.0	91.399994	124.71	106.78
         460	1	154	1	0.0	89.619995	125.490005	102.56
         461	1	154	3	0.0	87.27999	125.549995	102.21
         462	1	154	4	0.0	90.41	125.9	101.30999
         463	1	155	1	0.0	86.91	122.86	101.869995
         464	1	155	3	0.0	85.45	121.38	102.98
         465	1	155	4	0.0	87.1	121.71	100.88
         466	1	156	1	0.0	86.75	121.66	105.46
         467	1	156	3	0.0	84.78	120.600006	106.33
         468	1	156	4	0.0	87.77	122.18	106.509995
         469	1	157	1	0.0	83.36	123.079994	106.29
         470	1	157	3	0.0	81.03	122.59	105.45
         471	1	157	4	0.0	83.03	124.5	106.700005
         472	1	158	1	0.0	81.9	121.92	102.8
         473	1	158	3	0.0	80.78	122.94001	100.84
         474	1	158	5	0.0	82.78	112.96776735	95.75152953
         475	1	159	1	0.0	82.04	125.490005	101.29
         476	1	159	3	0.0	84.07	124.979996	100.08
         477	1	159	4	0.0	82.72	126.75	101.92
         478	1	160	1	0.0	82.94	125.26	97.6
         479	1	160	3	0.0	83.31	126.73	95.8
         480	1	160	4	0.0	82.01	124.48	96.58
         481	1	161	1	0.0	83.73	128.93	97.53
         482	1	161	3	0.0	85.12	129.85	95.77
         483	1	161	4	0.0	83.61	129.86	98.759995
         484	1	162	1	0.0	87.5	128.56	96.57
         485	1	162	3	0.0	88.8	130.46	96.56
         486	1	162	4	0.0	88.2	127.3	96.600006
         487	1	163	1	0.0	88.44	130.95	99.44
         488	1	163	3	0.0	87.340004	132.54	98.05001
         489	1	163	4	0.0	89.99999	130.74	99.48
         490	1	164	1	0.0	87.91	134.78	100.01
         491	1	164	3	0.0	90.02	135.54	99.1
         492	1	164	4	0.0	88.12	135.4	101.42999
         493	1	165	1	0.0	88.61	136.84	96.76
         494	1	165	3	0.0	88.81	138.99	97.96
         495	1	165	4	0.0	87.6	137.11	95.72
         496	1	166	1	0.0	91.41	139.48	97.04001
         497	1	166	3	0.0	91.96	141.44	95.64
         498	1	166	4	0.0	92.39	139.0	98.1
         499	1	167	1	0.0	93.30999	139.91	93.73
         500	1	167	3	0.0	92.94	140.28	91.27999
         501	1	167	4	0.0	94.49	138.88	93.35
         502	1	168	1	0.0	90.439995	141.05	91.79
         503	1	168	3	0.0	90.65	141.85	89.6
         504	1	168	4	0.0	89.12	141.47	92.44
         505	1	169	1	0.0	92.14	144.17	90.38999
         506	1	169	3	0.0	93.21	144.02	88.39
         507	1	169	4	0.0	92.82	145.31	91.25
         508	1	170	1	0.0	95.12	142.22	89.52
         509	1	170	3	0.0	95.25	141.48	87.19
         510	1	170	4	0.0	96.0	141.52	90.57001
         511	1	171	1	0.0	93.44	139.3	87.84
         512	1	171	3	0.0	92.36	139.89	85.84
         513	1	171	5	0.0	93.87999	129.18281443	82.04744367
         514	1	172	1	0.0	89.84	139.92	86.97
         515	1	172	3	0.0	88.95	141.38	85.21
         516	1	172	4	0.0	88.72001	139.67	87.89
         517	1	173	1	0.0	89.98	143.65	86.31
         518	1	173	3	0.0	90.76999	144.16	84.08
         519	1	173	4	0.0	89.91	144.63	87.45
         520	1	174	1	0.0	93.51	144.5	84.86
         521	1	174	3	0.0	94.12001	143.67	82.75
         522	1	174	4	0.0	94.700005	145.03	85.65
         523	1	175	1	0.0	94.380005	141.17	83.46
         524	1	175	3	0.0	93.490005	139.92	81.56
         525	1	175	4	0.0	95.03	139.9	84.21
         526	1	176	1	0.0	90.93	140.44	81.89
         527	1	176	3	0.0	89.87999	141.78	80.22
         528	1	176	4	0.0	90.33	139.28	82.78
         529	1	177	1	0.0	88.06	142.91	81.89
         530	1	177	3	0.0	87.92	144.58	80.09
         531	1	177	4	0.0	87.35	143.25	83.26
         532	1	178	1	0.0	90.17	146.08	80.74
         533	1	178	3	0.0	90.22	146.36	78.32
         534	1	178	4	0.0	91.06	146.92	81.67
         535	1	179	1	0.0	92.0	144.41	77.76
         536	1	179	3	0.0	90.66	144.38	75.8
         537	1	179	4	0.0	93.05	143.26	77.98
         538	1	180	1	0.0	88.729996	142.72	76.78
         539	1	180	3	0.0	87.52	143.94	75.13
         540	1	180	4	0.0	87.87	141.79	77.61
         541	1	181	1	0.0	86.87	146.08	76.79
         542	1	181	3	0.0	86.85	147.34	74.82
         543	1	181	4	0.0	86.73	147.07	77.98
         544	1	182	1	0.0	89.549995	147.57	74.57
         545	1	182	3	0.0	89.01	147.46	72.25
         546	1	182	4	0.0	91.079994	147.82	74.85
         547	1	183	1	0.0	89.28	144.62	72.16
         548	1	183	3	0.0	87.63	145.1	70.44
         549	1	183	4	0.0	89.87999	143.19	72.49
         550	1	184	1	0.0	85.5	144.68	72.17
         551	1	184	3	0.0	84.48	145.89	70.46
         552	1	184	4	0.0	84.63	144.39	73.42
         553	1	185	1	0.0	84.82	148.4	71.59
         554	1	185	3	0.0	84.95	149.05	69.33
         555	1	185	4	0.0	85.04	149.43	72.6
         556	1	186	1	0.0	87.71001	148.62	69.05
         557	1	186	3	0.0	87.15	148.49	66.75
         558	1	186	4	0.0	89.14	148.42	69.24
         559	1	187	1	0.0	86.439995	145.72	66.93
         560	1	187	3	0.0	84.95	146.49	65.25
         561	1	187	4	0.0	86.58	144.21	67.32
         562	1	188	1	0.0	82.8	147.13	67.02
         563	1	188	3	0.0	82.51	148.62	65.26
         564	1	188	4	0.0	81.8	147.21	68.17
         565	1	189	1	0.0	84.06	150.76	66.32
         566	1	189	3	0.0	83.94	151.36	63.99
         567	1	189	4	0.0	85.16	151.3	67.29
         568	1	190	1	0.0	85.98	149.53	63.12
         569	1	190	3	0.0	84.87	149.57	61.08
         570	1	190	4	0.0	87.11	148.51	63.12
         571	1	191	1	0.0	83.23	147.4	61.76
         572	1	191	3	0.0	81.44	148.37	60.48
         573	1	191	4	0.0	82.91	146.02	62.28
         574	1	192	1	0.0	80.39	149.97	62.57
         575	1	192	3	0.0	79.98	151.39	60.680004
         576	1	192	4	0.0	80.22	150.57	64.04
         577	1	193	1	0.0	82.47	152.54	60.749996
         578	1	193	3	0.0	82.5	152.66	58.28
         579	1	193	4	0.0	83.76	153.34	61.259995
         580	1	194	1	0.0	83.62	150.29	57.76
         581	1	194	3	0.0	82.18	150.48	55.86
         582	1	194	4	0.0	84.31	148.94	57.98
         583	1	195	1	0.0	79.97	149.26	57.05
         584	1	195	3	0.0	78.17	150.46	56.18
         585	1	195	4	0.0	79.17	148.16	57.86
         586	1	196	1	0.0	78.53	152.79	57.61
         587	1	196	3	0.0	78.47	154.57	56.01
         588	1	196	4	0.0	78.77	153.51	59.000004
         589	1	197	1	0.0	81.04	153.9	54.749996
         590	1	197	3	0.0	81.72	153.21	52.55
         591	1	197	4	0.0	82.54	154.23	55.159996
         592	1	198	1	0.0	79.94	151.1	52.41
         593	1	198	3	0.0	78.21	152.55	51.66
         594	1	198	4	0.0	79.43	149.8	52.939995
         595	1	199	1	0.0	78.45	152.15	49.05
         596	1	199	3	0.0	80.3	151.43	47.570004
         597	1	199	4	0.0	78.32	153.69	49.03
         598	1	200	1	0.0	78.59	151.44	45.28
         599	1	200	3	0.0	79.31	153.74	44.86
         600	1	200	4	0.0	77.28	151.37	44.4
         601	1	201	1	0.0	81.7	152.93	43.52
         602	1	201	3	0.0	80.24	153.46	41.69
         603	1	201	4	0.0	82.85	152.04	42.9
         604	1	202	1	0.0	81.05	156.13	41.37
         605	1	202	3	0.0	82.11	155.2	39.45
         606	1	202	4	0.0	81.33	157.54	41.79
         607	1	203	1	0.0	80.49	156.6	37.59
         608	1	203	3	0.0	82.44	158.1	37.26
         609	1	203	4	0.0	79.43	157.55	36.93
         610	1	204	1	0.0	83.72	155.91	35.64
         611	1	204	3	0.0	82.52	156.94	33.88
         612	1	204	4	0.0	83.82	154.45	35.13
         613	1	205	1	0.0	84.73	158.61	33.0
         614	1	205	3	0.0	85.57	158.66	30.76
         615	1	205	4	0.0	85.68	159.71	33.47
         616	1	206	1	0.0	85.84	155.81	30.51
         617	1	206	3	0.0	88.04	156.78	30.450003
         618	1	206	5	0.0	85.38	145.02939741	27.91852961
         619	1	207	1	0.0	88.78	155.57	28.03
         620	1	207	3	0.0	87.42	155.28	26.09
         621	1	207	4	0.0	89.69	154.4	28.230001
         622	1	208	1	0.0	89.39	156.17	24.35
         623	1	208	3	0.0	90.93	155.46	22.7
         624	1	208	4	0.0	89.21	157.49	23.57
         625	1	209	1	0.0	92.87	154.65	24.46
         626	1	209	3	0.0	91.96999	152.48	23.98
         627	1	209	4	0.0	93.84	154.73	25.57
         628	1	210	1	0.0	93.91	151.79	22.06
         629	1	210	3	0.0	93.810005	150.13	23.76
         630	1	210	4	0.0	95.329994	151.65	21.42
         631	1	211	1	0.0	92.2	148.44	22.35
         632	1	211	3	0.0	93.89	146.87	21.51
         633	1	211	4	0.0	90.98	147.89	21.549997
         634	1	212	1	0.0	93.69	145.31	23.95
         635	1	212	3	0.0	92.64	143.07	24.12
         636	1	212	4	0.0	94.57001	145.36	25.17
         637	1	213	1	0.0	90.18	144.02	24.98
         638	1	213	3	0.0	88.729996	145.81	24.12
         639	1	213	4	0.0	89.74	143.87	26.450003
         640	1	214	1	0.0	87.48	144.17	22.21
         641	1	214	3	0.0	85.21	143.92	21.49
         642	1	214	4	0.0	87.86	143.46	20.85
         643	1	215	1	0.0	84.25	143.33	24.04
         644	1	215	3	0.0	84.97	144.68	25.96
         645	1	215	4	0.0	83.89	141.9	24.24
         646	1	216	1	0.0	82.55	145.23	26.849998
         647	1	216	3	0.0	82.81	147.55	27.41
         648	1	216	4	0.0	83.09	144.92	28.27
         649	1	217	1	0.0	83.09	148.51	24.73
         650	1	217	3	0.0	82.52	150.61	25.549997
         651	1	217	4	0.0	83.36	148.55	23.21
         652	1	218	1	0.0	79.98	148.52	24.32
         653	1	218	3	0.0	79.49	147.44	26.43
         654	1	218	4	0.0	78.75	149.35	23.819998
         655	1	219	1	0.0	78.5	145.1	25.3
         656	1	219	3	0.0	80.25	143.65	24.38
         657	1	219	4	0.0	77.05	144.94	24.81
         658	1	220	1	0.0	79.31	141.37	25.52