ITEM: TIMESTEP
0
ITEM: NUMBER OF ATOMS
8634
ITEM: BOX BOUNDS ss ss ss
28.36 146.49
14.75 159.75
-5.09 133.44
ITEM: ATOMS id type xs ys zs
1 1 0.290612 0.851379 0.837436
2 3 0.296368 0.84269 0.824659
3 4 0.277576 0.852138 0.836425
4 1 0.302717 0.82731 0.835776
5 3 0.289004 0.81531 0.839313
6 4 0.311183 0.822759 0.842922
7 1 0.280792 0.814828 0.820183
8 3 0.291543 0.816897 0.80589
9 4 0.268772 0.819655 0.822493
10 1 0.282824 0.803034 0.795423
11 3 0.278337 0.802207 0.778532
12 4 0.283163 0.792828 0.798094
13 1 0.259629 0.813448 0.779542
14 3 0.265216 0.818552 0.76395
15 4 0.24837 0.817724 0.782502
16 1 0.282485 0.829931 0.770519
17 3 0.292728 0.824207 0.757381
18 4 0.289681 0.837931 0.775572
19 1 0.303479 0.809724 0.767054
20 3 0.303395 0.801517 0.751751
21 4 0.308643 0.804069 0.774778
22 1 0.2802 0.795931 0.75406
23 3 0.279184 0.798345 0.737385
24 4 0.269026 0.792483 0.75933
25 1 0.273851 0.817172 0.737819
26 3 0.284602 0.819724 0.723309
27 4 0.268348 0.826345 0.741644
28 1 0.30568 0.822345 0.73291
29 3 0.31186 0.814828 0.717823
30 4 0.315077 0.823931 0.740706
31 1 0.308643 0.797172 0.724969
32 3 0.304072 0.794069 0.707861
33 4 0.306442 0.789034 0.731538
34 1 0.281639 0.80131 0.708944
35 3 0.284348 0.805517 0.692341
36 4 0.269195 0.802621 0.712914
37 1 0.294252 0.822966 0.696239
38 3 0.308643 0.821931 0.683751
39 4 0.295268 0.832897 0.699848
40 1 0.323542 0.811379 0.69429
41 3 0.327774 0.801172 0.680502
42 4 0.331076 0.808138 0.702591
43 1 0.309913 0.789172 0.683246
44 3 0.311013 0.786483 0.666498
45 4 0.300686 0.784069 0.688659
46 1 0.29586 0.80131 0.66159
47 3 0.305511 0.800207 0.645853
48 4 0.286972 0.808897 0.661445
49 1 0.32515 0.808966 0.651483
50 3 0.33624 0.799793 0.64145
51 4 0.332769 0.816897 0.655598
52 1 0.336832 0.785172 0.654299
53 3 0.334631 0.775379 0.6408
54 4 0.338187 0.779586 0.663394
55 1 0.310844 0.775034 0.641016
56 3 0.310844 0.773931 0.623692
57 4 0.298485 0.775034 0.645059
58 1 0.314653 0.792966 0.621309
59 3 0.327774 0.789724 0.608172
60 4 0.313807 0.803034 0.623042
61 1 0.346229 0.786345 0.619938
62 3 0.349699 0.774276 0.608316
63 4 0.355287 0.787034 0.62694
64 1 0.337763 0.76131 0.616834
65 3 0.333954 0.755724 0.601025
66 4 0.333108 0.754965 0.624341
67 1 0.315923 0.767793 0.597993
68 3 0.323203 0.767862 0.58139
69 4 0.306781 0.774966 0.600736
70 1 0.339457 0.781517 0.585216
71 3 0.349784 0.773517 0.573089
72 5 0.330399 0.733366 0.546256
73 1 0.358673 0.760345 0.585072
74 3 0.355625 0.751034 0.570779
75 4 0.362821 0.754 0.593662
76 1 0.334208 0.745379 0.574821
77 3 0.330737 0.744345 0.557858
78 4 0.322103 0.742966 0.579008
79 1 0.32896 0.764138 0.555042
80 3 0.338356 0.761793 0.540244
81 4 0.326166 0.774621 0.557497
82 1 0.360196 0.762897 0.548979
83 3 0.367984 0.750828 0.538151
84 4 0.369931 0.767655 0.554826
85 1 0.36045 0.736276 0.550134
86 3 0.356895 0.728207 0.534686
87 4 0.357572 0.730828 0.559373
88 1 0.334293 0.733172 0.533531
89 3 0.327436 0.736138 0.517144
90 4 0.322357 0.733103 0.538512
91 1 0.342927 0.751241 0.514907
92 3 0.349953 0.748552 0.499025
93 4 0.349276 0.759931 0.517722
94 1 0.36426 0.733862 0.503645
95 3 0.350885 0.720552 0.504656
96 4 0.374672 0.729931 0.509132
97 1 0.35334 0.716345 0.485021
98 3 0.371201 0.708138 0.484805
99 4 0.351308 0.719793 0.474626
100 1 0.360366 0.691034 0.486537
101 3 0.366969 0.678759 0.476359
102 4 0.35334 0.68469 0.493756
103 1 0.363836 0.69 0.458962
104 3 0.383814 0.689793 0.462499
105 4 0.359688 0.698207 0.452104
106 1 0.387285 0.678 0.44503
107 3 0.400576 0.690207 0.446474
108 4 0.386269 0.675793 0.434274
109 1 0.419284 0.678483 0.451094
110 3 0.429188 0.690621 0.46055
111 4 0.425125 0.681931 0.441782
112 1 0.413697 0.690414 0.475348
113 3 0.425802 0.700345 0.484588
114 4 0.404978 0.685034 0.482856
115 1 0.441886 0.687379 0.487909
116 3 0.461187 0.693034 0.488198
117 4 0.445103 0.677862 0.491518
118 1 0.459494 0.699448 0.469068
119 3 0.462372 0.714069 0.461055
120 4 0.461271 0.694345 0.459395
121 1 0.448066 0.724069 0.474338
122 3 0.444849 0.721379 0.491157
123 4 0.437992 0.726966 0.468057
124 1 0.447896 0.740138 0.497293
125 3 0.437146 0.738621 0.511947
126 4 0.450013 0.750414 0.49751
127 1 0.416829 0.739793 0.502274
128 3 0.411157 0.734345 0.517938
129 4 0.407348 0.740207 0.49455
130 1 0.416998 0.715793 0.514401
131 3 0.420384 0.714897 0.531293
132 4 0.419538 0.707655 0.50776
133 1 0.441886 0.722069 0.530354
134 3 0.434521 0.728552 0.545586
135 4 0.453822 0.724483 0.526529
136 1 0.427072 0.74469 0.537645
137 3 0.414374 0.74469 0.550783
138 4 0.42377 0.752207 0.529921
139 1 0.400152 0.730897 0.543276
140 3 0.399814 0.724621 0.559518
141 4 0.391687 0.725517 0.536562
142 1 0.418183 0.713931 0.558796
143 3 0.4214 0.716621 0.575327
144 4 0.427664 0.707655 0.555042
145 1 0.430966 0.734345 0.571645
146 3 0.420638 0.739862 0.585361
147 4 0.436976 0.742 0.565726
148 1 0.40066 0.743517 0.575688
149 3 0.390333 0.738345 0.589908
150 4 0.391602 0.746207 0.567964
151 1 0.392449 0.719931 0.586876
152 3 0.394989 0.719448 0.603985
153 4 0.392534 0.709586 0.583412
154 1 0.417337 0.724828 0.604707
155 3 0.412004 0.731862 0.61936
156 4 0.430373 0.725862 0.602902
157 1 0.405316 0.749172 0.61142
158 3 0.392957 0.749379 0.625208
159 4 0.402777 0.756828 0.603552
160 1 0.377719 0.736759 0.617917
161 3 0.374333 0.730345 0.63387
162 4 0.369677 0.732138 0.610698
163 1 0.393211 0.717862 0.632787
164 3 0.397528 0.720069 0.649462
165 4 0.402015 0.711241 0.628384
166 1 0.40794 0.73731 0.647513
167 3 0.398798 0.741862 0.66159
168 4 0.417675 0.743862 0.644409
169 1 0.38009 0.749862 0.651917
170 3 0.369931 0.746828 0.666931
171 5 0.38974 0.704524 0.612063
172 1 0.367815 0.727793 0.662889
173 3 0.372556 0.719517 0.677832
174 4 0.361297 0.719724 0.65798
175 1 0.395073 0.724759 0.678698
176 3 0.393634 0.732276 0.694507
177 4 0.407432 0.723793 0.674583
178 1 0.392703 0.749724 0.687938
179 3 0.38119 0.753448 0.701797
180 4 0.39702 0.758552 0.683101
181 1 0.361382 0.751586 0.691836
182 3 0.353847 0.75131 0.707572
183 4 0.351816 0.750483 0.683967
184 1 0.355033 0.734552 0.712914
185 3 0.357572 0.740483 0.729012
186 4 0.356133 0.724 0.713059
187 1 0.38136 0.742345 0.727135
188 3 0.379413 0.756276 0.736952
189 4 0.393634 0.739724 0.723598
190 1 0.376026 0.768966 0.721649
191 3 0.363244 0.776552 0.732693
192 4 0.377127 0.773517 0.711398
193 1 0.344451 0.765379 0.72894
194 3 0.340218 0.768552 0.745326
195 4 0.335732 0.760345 0.722443
196 1 0.352324 0.754069 0.752328
197 3 0.356895 0.764552 0.765322
198 4 0.357995 0.744207 0.753122
199 1 0.373825 0.773448 0.756515
200 3 0.367984 0.785724 0.766188
201 4 0.383476 0.776 0.749007
202 1 0.350377 0.792069 0.7537
203 3 0.343435 0.79531 0.769147
204 4 0.342927 0.794414 0.745037
205 1 0.331669 0.778414 0.77153
206 3 0.333531 0.78 0.788566
207 4 0.325658 0.76931 0.768787
208 1 0.35334 0.769241 0.79037
209 3 0.373741 0.768552 0.789215
210 4 0.353932 0.758276 0.790948
211 1 0.377212 0.787103 0.794702
212 3 0.383053 0.780552 0.8095
213 5 0.366461 0.737804 0.744369
214 1 0.405401 0.777448 0.803725
215 3 0.409718 0.764483 0.81412
216 4 0.409041 0.784966 0.811377
217 1 0.393296 0.752759 0.805602
218 3 0.405232 0.740414 0.806757
219 4 0.381952 0.749517 0.801343
220 1 0.414374 0.744552 0.787411
221 3 0.415559 0.728414 0.786761
222 4 0.418945 0.751517 0.78012
223 1 0.39829 0.72469 0.774056
224 3 0.405147 0.709241 0.773551
225 4 0.39101 0.726621 0.764816
226 1 0.423347 0.71331 0.761063
227 3 0.439685 0.716897 0.771674
228 4 0.428172 0.716621 0.751245
229 1 0.448658 0.699724 0.769942
230 3 0.456785 0.707103 0.756154
231 4 0.449251 0.689517 0.767054
232 1 0.476424 0.713241 0.767198
233 3 0.485143 0.715241 0.751534
234 4 0.486159 0.713586 0.774922
235 1 0.487345 0.695517 0.748719
236 3 0.483958 0.697034 0.731971
237 4 0.489461 0.685448 0.750596
238 1 0.46034 0.698621 0.732982
239 3 0.457462 0.711931 0.722659
240 4 0.44815 0.695724 0.736158
241 1 0.46034 0.725241 0.736086
242 3 0.467536 0.734828 0.723092
243 4 0.460764 0.728966 0.746192
244 1 0.490223 0.727172 0.725691
245 3 0.493185 0.729448 0.708294
246 4 0.49928 0.721517 0.730455
247 1 0.480488 0.714483 0.703097
248 3 0.472276 0.724759 0.69032
249 4 0.475408 0.704897 0.702808
250 1 0.454669 0.731241 0.702952
251 3 0.453991 0.745586 0.694507
252 4 0.445695 0.730069 0.711687
253 1 0.472615 0.753793 0.703674
254 3 0.479387 0.758 0.687721
255 4 0.480318 0.758069 0.711687
256 1 0.493016 0.742483 0.685411
257 3 0.492 0.74731 0.669241
258 4 0.498857 0.732966 0.685916
259 1 0.470583 0.738759 0.665343
260 3 0.469313 0.752207 0.654154
261 4 0.460594 0.731862 0.664694
262 1 0.46288 0.764966 0.668736
263 3 0.474223 0.775448 0.657691
264 4 0.458986 0.769379 0.677976
265 1 0.495132 0.771172 0.666426
266 3 0.502497 0.773862 0.65004
267 4 0.504868 0.768828 0.673572
268 1 0.498688 0.755724 0.643471
269 3 0.49454 0.762759 0.628167
270 4 0.498095 0.74469 0.643904
271 1 0.471938 0.766483 0.632787
272 3 0.474647 0.780414 0.623475
273 4 0.459663 0.765241 0.635819
274 1 0.484128 0.791034 0.637912
275 3 0.496233 0.796759 0.625641
276 4 0.486583 0.796 0.64708
277 1 0.51164 0.783448 0.627951
278 3 0.514772 0.787517 0.61142
279 4 0.518581 0.775379 0.630694
280 1 0.500042 0.774552 0.603696
281 3 0.495386 0.78469 0.590991
282 4 0.493355 0.765517 0.603118
283 1 0.481842 0.797103 0.602324
284 3 0.490561 0.809172 0.593879
285 4 0.472954 0.800828 0.609254
286 1 0.507915 0.811517 0.605717
287 3 0.519766 0.81469 0.59193
288 4 0.514433 0.81131 0.615246
289 1 0.5262 0.796966 0.589403
290 3 0.525184 0.800138 0.572295
291 4 0.530009 0.786897 0.591424
292 1 0.502074 0.795862 0.570418
293 3 0.501312 0.807793 0.558652
294 4 0.489969 0.791724 0.571573
295 1 0.499026 0.822483 0.571717
296 3 0.509693 0.832552 0.561683
297 4 0.496064 0.826897 0.581896
298 1 0.530517 0.825034 0.567891
299 3 0.534919 0.825793 0.551144
300 4 0.541014 0.821862 0.573161
301 1 0.528909 0.808414 0.546524
302 3 0.524253 0.813655 0.53086
303 4 0.525607 0.798138 0.547318
304 1 0.503344 0.820276 0.534974
305 3 0.506984 0.833379 0.524507
306 4 0.490477 0.819586 0.537573
307 1 0.515957 0.845172 0.538584
308 3 0.5273 0.851034 0.526673
309 4 0.519089 0.850138 0.54869
310 1 0.545247 0.839241 0.530499
311 3 0.549818 0.84331 0.51404
312 4 0.552442 0.830897 0.533675
313 1 0.531787 0.830552 0.507038
314 3 0.527808 0.840345 0.493972
315 4 0.524168 0.821793 0.507327
316 1 0.514433 0.852345 0.504656
317 3 0.522137 0.86531 0.495416
318 4 0.504698 0.855862 0.511947
319 1 0.540676 0.867586 0.508987
320 3 0.551765 0.872414 0.495416
321 4 0.547786 0.868138 0.518588
322 1 0.558876 0.85669 0.490002
323 3 0.556929 0.861655 0.473905
324 4 0.566579 0.848069 0.490796
325 1 0.53475 0.856069 0.471739
326 3 0.532887 0.868759 0.46055
327 4 0.522814 0.851862 0.472894
328 1 0.528062 0.882483 0.47441
329 3 0.538474 0.895655 0.468563
330 4 0.521883 0.886621 0.483361
331 1 0.559299 0.888207 0.472894
332 3 0.574198 0.886621 0.461272
333 4 0.568188 0.886897 0.481195
334 1 0.563278 0.872345 0.450949
335 3 0.5786 0.878897 0.441926
336 4 0.556252 0.863586 0.449217
337 1 0.550665 0.880621 0.43182
338 3 0.544231 0.890414 0.444669
339 4 0.549056 0.885103 0.421786
340 1 0.521375 0.882345 0.443297
341 3 0.517565 0.866621 0.44106
342 4 0.513163 0.889724 0.439111
343 1 0.500212 0.865655 0.455208
344 3 0.493101 0.853172 0.445752
345 4 0.492593 0.867862 0.463438
346 1 0.482519 0.864414 0.43247
347 3 0.487345 0.851931 0.421425
348 4 0.476509 0.872276 0.426911
349 1 0.508508 0.858138 0.416155
350 3 0.514179 0.841724 0.416516
351 4 0.517989 0.864897 0.41269
352 1 0.520359 0.841448 0.435718
353 3 0.515534 0.824897 0.435646
354 4 0.523491 0.844345 0.445896
355 1 0.49217 0.82869 0.438894
356 3 0.489545 0.822483 0.423157
357 4 0.481249 0.834207 0.44207
358 1 0.490223 0.804207 0.42886
359 3 0.476424 0.792897 0.423374
360 4 0.501651 0.799862 0.430737
361 1 0.469229 0.788 0.442503
362 3 0.482943 0.784069 0.45362
363 4 0.468382 0.77931 0.436079
364 1 0.469737 0.778276 0.468057
365 3 0.46889 0.763517 0.475709
366 4 0.464658 0.782483 0.477153
367 1 0.459917 0.754759 0.459395
368 3 0.463049 0.742483 0.470584
369 4 0.456277 0.752414 0.448856
370 1 0.485905 0.740276 0.466758
371 3 0.499534 0.741103 0.479679
372 4 0.495556 0.737655 0.4599
373 1 0.493185 0.757379 0.487043
374 3 0.49217 0.758759 0.504367
375 4 0.490223 0.768069 0.485743
376 1 0.48853 0.740207 0.508049
377 3 0.499026 0.736207 0.522342
378 4 0.480149 0.731517 0.507038
379 1 0.518835 0.732069 0.513318
380 3 0.531025 0.736483 0.526529
381 4 0.527724 0.72731 0.505955
382 1 0.525269 0.755517 0.525229
383 3 0.522814 0.757931 0.541976
384 4 0.525861 0.765655 0.521692
385 1 0.499958 0.751379 0.542843
386 3 0.504952 0.745448 0.558074
387 4 0.487429 0.749448 0.539955
388 1 0.514603 0.728828 0.549556
389 3 0.527724 0.727931 0.562189
390 4 0.51528 0.721448 0.541543
391 1 0.543046 0.74069 0.553021
392 3 0.547786 0.745724 0.568325
393 4 0.550072 0.745034 0.544936
394 1 0.528824 0.758621 0.568685
395 3 0.530771 0.753172 0.585433
396 4 0.518327 0.764621 0.565942
397 1 0.515618 0.739241 0.583628
398 3 0.5273 0.733793 0.596333
399 4 0.506137 0.732414 0.57973
400 1 0.542792 0.725379 0.583917
401 3 0.554812 0.726207 0.597921
402 4 0.549141 0.721793 0.575182
403 1 0.561161 0.74469 0.594673
404 3 0.559384 0.749586 0.611636
405 4 0.566494 0.752414 0.589475
406 1 0.536443 0.754483 0.609976
407 3 0.535173 0.750345 0.626723
408 4 0.524592 0.757448 0.607089
409 1 0.53602 0.731241 0.622753
410 3 0.546771 0.730069 0.637407
411 4 0.533565 0.721655 0.61936
412 1 0.567002 0.733931 0.628961
413 3 0.569457 0.742138 0.644626
414 5 0.556506 0.676942 0.591793
415 1 0.565902 0.759448 0.636469
416 3 0.562516 0.76531 0.652494
417 4 0.562093 0.766552 0.629106
418 1 0.541268 0.756345 0.653938
419 3 0.542707 0.751448 0.669963
420 4 0.528993 0.753379 0.650473
421 1 0.556336 0.736828 0.667798
422 3 0.562008 0.738897 0.684617
423 4 0.563278 0.728759 0.663827
424 1 0.576737 0.753241 0.682451
425 3 0.573097 0.760345 0.697394
426 4 0.586473 0.758759 0.677759
427 1 0.554474 0.770138 0.690969
428 3 0.551511 0.771931 0.706851
429 4 0.546517 0.776207 0.684545
430 1 0.537882 0.75731 0.710532
431 3 0.547363 0.755034 0.725186
432 4 0.52984 0.749034 0.708222
433 1 0.565733 0.745793 0.716884
434 3 0.579277 0.751379 0.728579
435 4 0.571658 0.73869 0.709955
436 1 0.580378 0.769172 0.720133
437 3 0.579616 0.77669 0.735509
438 4 0.581055 0.776138 0.711543
439 1 0.556167 0.774276 0.738252
440 3 0.560569 0.771655 0.754927
441 5 0.563024 0.723841 0.696565
442 1 0.563616 0.752621 0.751751
443 3 0.577669 0.752966 0.763878
444 4 0.562854 0.742414 0.747925
445 1 0.594853 0.761103 0.750812
446 3 0.601202 0.770621 0.763589
447 4 0.601117 0.762759 0.741283
448 1 0.584864 0.784414 0.761351
449 3 0.586303 0.782897 0.779109
450 4 0.576991 0.791241 0.755721
451 1 0.565987 0.772828 0.781491
452 3 0.55422 0.761724 0.772612
453 4 0.557606 0.780138 0.78539
454 1 0.55896 0.746483 0.78344
455 3 0.5433 0.737517 0.788493
456 4 0.566918 0.73869 0.786544
457 1 0.532718 0.752 0.798527
458 3 0.513671 0.757586 0.795929
459 4 0.533649 0.758345 0.807551
460 1 0.518581 0.763724 0.777088
461 3 0.498772 0.764138 0.774561
462 4 0.525269 0.766552 0.768065
463 1 0.49564 0.745586 0.772107
464 3 0.483281 0.735379 0.78012
465 4 0.497249 0.737655 0.764961
466 1 0.494286 0.73731 0.798022
467 3 0.477609 0.73 0.804302
468 4 0.502921 0.740897 0.805602
469 1 0.465589 0.747103 0.804014
470 3 0.445865 0.743724 0.79795
471 4 0.462795 0.756897 0.806973
472 1 0.453229 0.739103 0.77882
473 3 0.443748 0.746138 0.764672
474 5 0.460679 0.677364 0.72794
475 1 0.454415 0.763724 0.76792
476 3 0.471599 0.760207 0.759186
477 4 0.460171 0.772414 0.772468
478 1 0.462033 0.762138 0.741283
479 3 0.465165 0.772276 0.72829
480 4 0.454161 0.756759 0.73392
481 1 0.468721 0.787448 0.740778
482 3 0.480488 0.793793 0.728073
483 4 0.467705 0.793862 0.749657
484 1 0.500635 0.784897 0.733848
485 3 0.51164 0.798 0.733776
486 4 0.506561 0.776207 0.734065
487 1 0.508592 0.801379 0.754566
488 3 0.49928 0.812345 0.744532
489 4 0.521798 0.799931 0.754855
490 1 0.504106 0.827793 0.75868
491 3 0.521967 0.833034 0.752111
492 4 0.505883 0.832069 0.768931
493 1 0.510031 0.842 0.73522
494 3 0.511724 0.856828 0.743882
495 4 0.501481 0.843862 0.727712
496 1 0.533734 0.860207 0.737241
497 3 0.53839 0.873724 0.727135
498 4 0.54203 0.856897 0.744893
499 1 0.549818 0.863172 0.713347
500 3 0.546686 0.865724 0.695662
501 4 0.559807 0.856069 0.710604
502 1 0.525523 0.871034 0.699343
503 3 0.5273 0.876552 0.683534
504 4 0.514349 0.873931 0.704035
505 1 0.539914 0.892552 0.689237
506 3 0.548971 0.891517 0.6748
507 4 0.54567 0.900414 0.695445
508 1 0.56514 0.879103 0.682957
509 3 0.566241 0.874 0.666137
510 4 0.57259 0.874276 0.690536
511 1 0.550918 0.858966 0.670829
512 3 0.541776 0.863034 0.656392
513 5 0.554643 0.789192 0.629015
514 1 0.520444 0.863241 0.664549
515 3 0.51291 0.87331 0.651844
516 4 0.510963 0.861517 0.67119
517 1 0.521629 0.888966 0.659785
518 3 0.528316 0.892483 0.643687
519 4 0.521036 0.895724 0.668014
520 1 0.551511 0.894828 0.649318
521 3 0.556675 0.889103 0.634086
522 4 0.561585 0.898483 0.655021
523 1 0.558876 0.871862 0.639212
524 3 0.551342 0.863241 0.625496
525 4 0.564378 0.863103 0.644626
526 1 0.529671 0.866828 0.627878
527 3 0.520782 0.876069 0.615823
528 4 0.524592 0.858828 0.634303
529 1 0.505375 0.883862 0.627878
530 3 0.50419 0.895379 0.614885
531 4 0.499365 0.886207 0.637768
532 1 0.523237 0.905724 0.619577
533 3 0.52366 0.907655 0.602108
534 4 0.530771 0.911517 0.62629
535 1 0.538729 0.894207 0.598065
536 3 0.527385 0.894 0.583917
537 4 0.547617 0.886276 0.599654
538 1 0.511047 0.882552 0.590991
539 3 0.500804 0.890966 0.57908
540 4 0.503767 0.876138 0.596983
541 1 0.495302 0.905724 0.591063
542 3 0.495132 0.914414 0.576843
543 4 0.494117 0.912552 0.599654
544 1 0.517989 0.916 0.575038
545 3 0.513417 0.915241 0.558291
546 4 0.53094 0.917724 0.577059
547 1 0.515703 0.895655 0.557641
548 3 0.501735 0.898966 0.545225
549 4 0.520782 0.885793 0.560023
550 1 0.483704 0.896069 0.557713
551 3 0.47507 0.904414 0.545369
552 4 0.47634 0.894069 0.566736
553 1 0.477948 0.921724 0.553526
554 3 0.479049 0.926207 0.537212
555 4 0.47981 0.928828 0.560817
556 1 0.502413 0.923241 0.535191
557 3 0.497672 0.922345 0.518588
558 4 0.514518 0.921862 0.536562
559 1 0.491662 0.903241 0.519887
560 3 0.479049 0.908552 0.50776
561 4 0.492847 0.892828 0.522703
562 1 0.460848 0.912966 0.520537
563 3 0.458393 0.923241 0.507832
564 4 0.452383 0.913517 0.528839
565 1 0.471514 0.938 0.515484
566 3 0.470499 0.942138 0.498665
567 4 0.480826 0.941724 0.522486
568 1 0.487768 0.929517 0.492384
569 3 0.478371 0.929793 0.477658
570 4 0.497333 0.922483 0.492384
571 1 0.464488 0.914828 0.482567
572 3 0.449335 0.921517 0.473327
573 4 0.461779 0.90531 0.486321
574 1 0.440447 0.932552 0.488414
575 3 0.436976 0.942345 0.474771
576 4 0.439008 0.93669 0.499025
577 1 0.458055 0.950276 0.475276
578 3 0.458309 0.951103 0.457446
579 4 0.468975 0.955793 0.478958
580 1 0.46779 0.934759 0.453692
581 3 0.4556 0.936069 0.439977
582 4 0.473631 0.925448 0.45528
583 1 0.436892 0.927655 0.448567
584 3 0.421654 0.935931 0.442287
585 4 0.430119 0.920069 0.454414
586 1 0.424702 0.952 0.45261
587 3 0.424194 0.964276 0.44106
588 4 0.426733 0.956966 0.462643
589 1 0.445949 0.959655 0.431964
590 3 0.451706 0.954897 0.416083
591 4 0.458647 0.961931 0.434924
592 1 0.436638 0.940345 0.415073
593 3 0.421993 0.950345 0.409659
594 4 0.43232 0.931379 0.418898
595 1 0.424024 0.947586 0.390818
596 3 0.439685 0.942621 0.380134
597 4 0.422924 0.958207 0.390674
598 1 0.42521 0.94269 0.363604
599 3 0.431304 0.958552 0.360572
600 4 0.41412 0.942207 0.357251
601 1 0.451536 0.952966 0.350899
602 3 0.439177 0.956621 0.337689
603 4 0.461271 0.946828 0.346423
604 1 0.446034 0.975034 0.335379
605 3 0.455007 0.968621 0.321519
606 4 0.448404 0.984759 0.33841
607 1 0.441293 0.978276 0.308092
608 3 0.457801 0.988621 0.30571
609 4 0.43232 0.984828 0.303328
610 1 0.468636 0.973517 0.294016
611 3 0.458478 0.980621 0.281311
612 4 0.469483 0.963448 0.290334
613 1 0.477186 0.992138 0.274958
614 3 0.484297 0.992483 0.258789
615 4 0.485228 0.999724 0.278351
616 1 0.486583 0.972828 0.256984
617 3 0.505206 0.979517 0.256551
618 5 0.482689 0.898479 0.238277
619 1 0.51147 0.971172 0.239082
620 3 0.499958 0.969172 0.225078
621 4 0.519174 0.963103 0.240526
622 1 0.516634 0.97531 0.212517
623 3 0.529671 0.970414 0.200606
624 4 0.51511 0.984414 0.206887
625 1 0.546093 0.964828 0.213311
626 3 0.538474 0.949862 0.209846
627 4 0.554305 0.965379 0.221324
628 1 0.554897 0.945103 0.195986
629 3 0.554051 0.933655 0.208258
630 4 0.566918 0.944138 0.191366
631 1 0.540422 0.922 0.19808
632 3 0.554728 0.911172 0.192016
633 4 0.530094 0.918207 0.192305
634 1 0.553035 0.900414 0.20963
635 3 0.544146 0.884966 0.210857
636 4 0.560484 0.900759 0.218436
637 1 0.523322 0.891517 0.217065
638 3 0.511047 0.903862 0.210857
639 4 0.519597 0.890483 0.227676
640 1 0.500466 0.892552 0.197069
641 3 0.481249 0.890828 0.191872
642 4 0.503682 0.887655 0.187252
643 1 0.473123 0.886759 0.210279
644 3 0.479218 0.896069 0.224139
645 4 0.470075 0.876897 0.211723
646 1 0.458732 0.899862 0.230564
647 3 0.460933 0.915862 0.234606
648 4 0.463303 0.897724 0.240814
649 1 0.463303 0.922483 0.21526
650 3 0.458478 0.936966 0.22118
651 4 0.465589 0.922759 0.204288
652 1 0.436976 0.922552 0.212301
653 3 0.432828 0.915103 0.227532
654 4 0.426564 0.928276 0.208691
655 1 0.424448 0.898966 0.219375
656 3 0.439262 0.888966 0.212734
657 4 0.412173 0.897862 0.215838
658 1 0.431304 0.873241 0.220963
659 3 0.416998 0.87131 0.208908
660 4 0.427241 0.866552 0.228615
661 1 0.432574 0.860552 0.19678
662 3 0.416067 0.850621 0.200606
663 4 0.442309 0.855379 0.193027
664 1 0.410226 0.849931 0.180322
665 3 0.405485 0.833448 0.18357
666 4 0.408702 0.853448 0.169711
667 1 0.427495 0.827172 0.180466
668 3 0.42521 0.813448 0.171371
669 4 0.422755 0.821241 0.188912
670 1 0.428426 0.823172 0.15318
671 3 0.448912 0.824966 0.153974
672 4 0.426395 0.831103 0.146033
673 1 0.452214 0.806552 0.147549
674 3 0.462711 0.818276 0.13867
675 4 0.450605 0.798276 0.140692
676 1 0.484636 0.811931 0.144662
677 3 0.480488 0.827586 0.149354
678 4 0.487006 0.810414 0.133545
679 1 0.503429 0.830966 0.153685
680 3 0.506053 0.847034 0.152458
681 4 0.514433 0.828069 0.158161
682 1 0.508592 0.846483 0.131307
683 3 0.49217 0.855517 0.135855
684 4 0.509693 0.843517 0.120479
685 1 0.500974 0.872552 0.132246
686 3 0.49454 0.874069 0.115715
687 4 0.509693 0.880759 0.132895
688 1 0.472276 0.879862 0.121634
689 3 0.473292 0.895241 0.127265
690 4 0.460679 0.876414 0.125316
691 1 0.466181 0.903655 0.110445
692 3 0.450351 0.899448 0.100628
693 4 0.473715 0.908 0.102433
694 1 0.449082 0.916828 0.119757
695 3 0.44087 0.904966 0.129647
696 4 0.440616 0.924414 0.119108
697 1 0.453483 0.908069 0.145889
698 3 0.451029 0.911034 0.162708
699 4 0.464065 0.901034 0.147044
700 1 0.456277 0.929862 0.161193
701 3 0.459663 0.942759 0.149643
702 4 0.465758 0.929379 0.168772
703 1 0.447981 0.955034 0.162636
704 3 0.466266 0.95931 0.169638
705 4 0.438839 0.957655 0.170144
706 1 0.466351 0.97731 0.161698
707 3 0.457801 0.977931 0.177651
708 4 0.460594 0.984897 0.155273
709 1 0.474223 0.987793 0.186891
710 3 0.483281 0.972828 0.190067
711 5 0.47507 0.926238 0.182853
712 1 0.482773 0.977586 0.21064
713 3 0.466689 0.968 0.208042
714 4 0.481165 0.982552 0.220169
715 1 0.476932 0.95269 0.219158
716 3 0.479387 0.956 0.236483
717 4 0.487006 0.945517 0.217498
718 1 0.456277 0.958138 0.240237
719 3 0.44832 0.950345 0.254313
720 4 0.445272 0.963448 0.238432
721 1 0.449251 0.932966 0.246734
722 3 0.464404 0.934207 0.258139
723 5 0.453653 0.861364 0.232778
724 1 0.459494 0.918345 0.267956
725 3 0.474139 0.909172 0.260232
726 4 0.454161 0.910138 0.273009
727 1 0.49217 0.918621 0.269111
728 3 0.503936 0.91069 0.280878
729 4 0.500381 0.927241 0.266296
730 1 0.487937 0.910552 0.295026
731 3 0.469398 0.916138 0.297769
732 4 0.493439 0.915586 0.303761
733 1 0.46161 0.899172 0.306721
734 3 0.469144 0.902345 0.322963
735 4 0.457885 0.889103 0.306865
736 1 0.44815 0.908069 0.330181
737 3 0.431135 0.899034 0.328737
738 4 0.442817 0.918069 0.330542
739 1 0.431728 0.891862 0.346423
740 3 0.435283 0.901724 0.359417
741 4 0.436045 0.882345 0.349527
742 1 0.412004 0.902207 0.364831
743 3 0.399729 0.889517 0.367863
744 4 0.407263 0.911172 0.360355
745 1 0.393888 0.894621 0.387136
746 3 0.39465 0.909724 0.393272
747 4 0.400152 0.887379 0.393778
748 1 0.374079 0.908 0.403451
749 3 0.373656 0.901034 0.419476
750 4 0.36062 0.906621 0.403234
751 1 0.393803 0.908552 0.42489
752 3 0.395412 0.913448 0.441204
753 4 0.406332 0.908483 0.42193
754 1 0.380682 0.927448 0.439905
755 3 0.373402 0.924897 0.455641
756 4 0.375772 0.937103 0.43745
757 1 0.359942 0.911034 0.450444
758 3 0.364937 0.904828 0.466325
759 4 0.352832 0.90469 0.444308
760 1 0.384407 0.897517 0.460622
761 3 0.389571 0.902276 0.476503
762 4 0.394481 0.892897 0.455641
763 1 0.397528 0.919448 0.470584
764 3 0.392618 0.924276 0.486393
765 4 0.400491 0.928138 0.464665
766 1 0.369508 0.926276 0.482856
767 3 0.368831 0.923241 0.500397
768 4 0.359011 0.928345 0.477442
769 1 0.365106 0.904138 0.496716
770 3 0.375349 0.902276 0.511947
771 4 0.363498 0.894966 0.490796
772 1 0.39575 0.904345 0.504439
773 3 0.400491 0.910552 0.519599
774 4 0.406417 0.904621 0.49751
775 1 0.39465 0.929103 0.513679
776 3 0.388216 0.935793 0.52855
777 5 0.393549 0.870104 0.483671
778 1 0.367392 0.927034 0.528117
779 3 0.371371 0.92331 0.54472
780 4 0.356048 0.923034 0.524796
781 1 0.38136 0.906828 0.541038
782 3 0.392026 0.91069 0.554898
783 4 0.382545 0.897034 0.537068
784 1 0.409972 0.919586 0.543709
785 3 0.412004 0.927931 0.558724
786 4 0.415221 0.922828 0.534397
787 1 0.39592 0.941379 0.553671
788 3 0.39465 0.941793 0.570779
789 4 0.386439 0.94669 0.547535
790 1 0.378143 0.927517 0.571429
791 3 0.385592 0.924207 0.586804
792 4 0.368746 0.920276 0.569263
793 1 0.404131 0.913931 0.579369
794 3 0.414035 0.918483 0.593518
795 4 0.410988 0.908276 0.571212
796 1 0.421146 0.935103 0.584855
797 3 0.418945 0.940966 0.600375
798 4 0.424871 0.942414 0.577492
799 1 0.395496 0.945172 0.599293
800 3 0.394904 0.941379 0.615607
801 4 0.384661 0.948828 0.594528
802 1 0.392534 0.921241 0.612647
803 3 0.403962 0.918621 0.62759
804 4 0.390756 0.912207 0.608316
805 1 0.424871 0.921586 0.617411
806 3 0.431812 0.929379 0.630982
807 4 0.433675 0.921172 0.609038
808 1 0.42504 0.947241 0.625713
809 3 0.430373 0.950345 0.642171
810 4 0.421908 0.956345 0.62066
811 1 0.412427 0.943931 0.651267
812 3 0.424786 0.938345 0.663683
813 4 0.399814 0.942483 0.653072
814 1 0.425971 0.920483 0.652855
815 3 0.443579 0.918552 0.661734
816 4 0.422077 0.912621 0.645709
817 1 0.455769 0.929655 0.648596
818 3 0.465335 0.932276 0.663972
819 4 0.458901 0.936276 0.64015
820 1 0.453653 0.948276 0.668303
821 3 0.455938 0.943931 0.685267
822 4 0.44815 0.957793 0.668519
823 1 0.4396 0.931241 0.685122
824 3 0.451029 0.922483 0.695517
825 4 0.42741 0.92669 0.683607
826 1 0.464319 0.914414 0.680647
827 3 0.479895 0.915517 0.69198
828 4 0.467705 0.909862 0.670541
829 1 0.484212 0.933931 0.688226
830 3 0.489461 0.932897 0.704901
831 4 0.485821 0.94331 0.683607
832 1 0.466943 0.937034 0.711254
833 3 0.473207 0.928483 0.724969
834 4 0.454923 0.940276 0.71212
835 1 0.467705 0.911448 0.717029
836 3 0.483958 0.90469 0.724969
837 4 0.461525 0.904345 0.711254
838 1 0.498688 0.905862 0.709449
839 3 0.516296 0.910621 0.716884
840 4 0.500889 0.902414 0.699199
841 1 0.514687 0.92869 0.712264
842 3 0.51892 0.934552 0.72764
843 4 0.516719 0.934828 0.703169
844 1 0.498265 0.943172 0.730817
845 3 0.493355 0.930207 0.739912
846 4 0.488106 0.949724 0.729012
847 1 0.504529 0.936414 0.75637
848 3 0.503344 0.937379 0.773623
849 4 0.515957 0.932621 0.756443
850 1 0.502497 0.956 0.774778
851 3 0.489545 0.968207 0.769436
852 4 0.513502 0.961448 0.776944
853 1 0.474562 0.965103 0.785823
854 3 0.459748 0.971517 0.775428
855 4 0.4738 0.974759 0.791309
856 1 0.459155 0.956759 0.762579
857 3 0.442817 0.952759 0.772396
858 4 0.462457 0.948897 0.755721
859 1 0.427157 0.963379 0.760413
860 3 0.418691 0.949241 0.755504
861 4 0.423093 0.970483 0.752833
862 1 0.400745 0.949724 0.76922
863 3 0.392788 0.945379 0.753772
864 4 0.396343 0.950207 0.780048
865 1 0.370439 0.948414 0.761135
866 3 0.364852 0.942966 0.745254
867 4 0.360027 0.953103 0.765971
868 1 0.370947 0.958138 0.735725
869 3 0.375265 0.949793 0.721504
870 4 0.37154 0.968345 0.733848
871 1 0.397528 0.94669 0.728073
872 3 0.398036 0.930828 0.724175
873 4 0.409464 0.949172 0.731177
874 1 0.382375 0.92469 0.738757
875 3 0.373656 0.913379 0.729228
876 5 0.387454 0.852372 0.70033
877 1 0.360112 0.927448 0.7197
878 3 0.362905 0.920897 0.704396
879 4 0.352154 0.935655 0.720782
880 1 0.381529 0.933586 0.70057
881 3 0.389994 0.920897 0.691764
882 4 0.389655 0.941793 0.702086
883 1 0.396936 0.91131 0.708583
884 3 0.391179 0.896621 0.701942
885 4 0.401422 0.909517 0.718689
886 1 0.368662 0.898138 0.706634
887 3 0.362567 0.891172 0.691908
888 4 0.357826 0.899241 0.713131
889 1 0.368746 0.906552 0.68108
890 3 0.377889 0.895517 0.671335
891 4 0.3679 0.91669 0.677254
892 1 0.398967 0.896966 0.679059
893 3 0.399729 0.88069 0.673067
894 4 0.409041 0.901379 0.684617
895 1 0.389148 0.873517 0.688876
896 3 0.383222 0.86269 0.676388
897 4 0.384153 0.871793 0.699054
898 1 0.36299 0.874 0.672418
899 3 0.364429 0.866621 0.657764
900 4 0.353424 0.880966 0.673861
901 1 0.380513 0.879172 0.65004
902 3 0.388724 0.865931 0.641955
903 4 0.387454 0.887931 0.648885
904 1 0.400406 0.858621 0.657475
905 3 0.39592 0.844138 0.649679
906 5 0.393803 0.794542 0.619604
907 1 0.374079 0.842276 0.657691
908 3 0.366122 0.836621 0.642532
909 4 0.364514 0.84269 0.665849
910 1 0.363836 0.852897 0.634014
911 3 0.370101 0.845517 0.619505
912 4 0.361635 0.863586 0.631632
913 1 0.394057 0.84931 0.622392
914 3 0.400068 0.836483 0.614019
915 4 0.405401 0.854 0.625641
916 1 0.394481 0.82469 0.629394
917 3 0.388216 0.814138 0.616762
918 4 0.392618 0.820897 0.639645
919 1 0.365191 0.819241 0.620082