ITEM: TIMESTEP
0
ITEM: NUMBER OF ATOMS
8634
ITEM: BOX BOUNDS ss ss ss
22.54 168.53
2.63 155.86
4.29981 125.79
ITEM: ATOMS id type xs ys zs
1 1 0.348586 0.858579 0.855462
2 3 0.333995 0.865431 0.850523
3 4 0.357559 0.856229 0.849371
4 1 0.33468 0.857926 0.828793
5 3 0.321529 0.849573 0.833485
6 4 0.336804 0.852314 0.818504
7 1 0.308309 0.86269 0.831838
8 3 0.306528 0.853553 0.815212
9 4 0.303788 0.87137 0.829204
10 1 0.290225 0.845787 0.823936
11 3 0.287074 0.842851 0.804593
12 4 0.282006 0.844939 0.832003
13 1 0.280225 0.859231 0.800313
14 3 0.286595 0.857208 0.782287
15 4 0.275772 0.868629 0.800889
16 1 0.303719 0.863408 0.787884
17 3 0.309679 0.852444 0.776278
18 4 0.311186 0.869347 0.79307
19 1 0.310569 0.838674 0.789942
20 3 0.30687 0.829276 0.77455
21 4 0.313994 0.833518 0.799984
22 1 0.288033 0.830516 0.778089
23 3 0.287622 0.82908 0.758417
24 4 0.278444 0.83019 0.783028
25 1 0.288307 0.846832 0.75496
26 3 0.297623 0.84259 0.739732
27 4 0.288239 0.857143 0.757347
28 1 0.314337 0.843438 0.750103
29 3 0.318994 0.831952 0.738333
30 4 0.322556 0.845918 0.757264
31 1 0.31098 0.818639 0.748457
32 3 0.308446 0.813222 0.730184
33 4 0.307281 0.811851 0.757429
34 1 0.290842 0.821575 0.728209
35 3 0.294061 0.820662 0.709277
36 4 0.282143 0.827123 0.731172
37 1 0.305432 0.836129 0.7101
38 3 0.314405 0.828232 0.696683
39 4 0.308925 0.844808 0.713969
40 1 0.324954 0.82027 0.712734
41 3 0.326803 0.808001 0.699482
42 4 0.330639 0.817333 0.723188
43 1 0.309953 0.8003 0.702363
44 3 0.308583 0.797951 0.68302
45 4 0.30187 0.796189 0.708865
46 1 0.298925 0.813026 0.678822
47 3 0.306596 0.81283 0.661372
48 4 0.292349 0.820596 0.681127
49 1 0.321529 0.821575 0.669274
50 3 0.329749 0.813614 0.655116
51 4 0.327831 0.827579 0.674624
52 1 0.331187 0.798277 0.667957
53 3 0.329338 0.790837 0.651083
54 4 0.333585 0.791881 0.67767
55 1 0.309747 0.789663 0.652976
56 3 0.310501 0.789597 0.633304
57 4 0.299952 0.789467 0.658079
58 1 0.312076 0.807675 0.630999
59 3 0.322967 0.806239 0.617088
60 4 0.309679 0.817268 0.634045
61 1 0.338174 0.801214 0.629847
62 3 0.342626 0.790119 0.617253
63 4 0.345435 0.80154 0.638819
64 1 0.329543 0.777785 0.62425
65 3 0.327831 0.774652 0.605071
66 4 0.324132 0.771781 0.631328
67 1 0.313104 0.78653 0.601943
68 3 0.316871 0.789924 0.583588
69 4 0.304541 0.792534 0.605318
70 1 0.332215 0.800888 0.58935
71 3 0.342421 0.792795 0.577414
72 5 0.325228 0.75662 0.543838
73 1 0.349955 0.78268 0.592477
74 3 0.351257 0.773608 0.576344
75 4 0.354476 0.777916 0.602519
76 1 0.334749 0.765385 0.577744
77 3 0.333037 0.764276 0.557742
78 4 0.32694 0.760426 0.582929
79 1 0.328995 0.781896 0.555437
80 3 0.336804 0.780461 0.537905
81 4 0.324132 0.790576 0.557824
82 1 0.354339 0.784246 0.54877
83 3 0.359751 0.773608 0.536588
84 4 0.36071 0.786987 0.558154
85 1 0.356942 0.759055 0.550581
86 3 0.356394 0.752137 0.532884
87 4 0.353928 0.753051 0.559882
88 1 0.338516 0.75651 0.528028
89 3 0.338379 0.76147 0.509179
90 4 0.328105 0.756053 0.529509
91 1 0.347147 0.776676 0.512471
92 3 0.352421 0.775697 0.493622
93 4 0.351257 0.785094 0.516751
94 1 0.366737 0.763623 0.498807
95 3 0.356874 0.751419 0.495679
96 4 0.374067 0.759185 0.506545
97 1 0.3616 0.74907 0.473949
98 3 0.377697 0.743588 0.473126
99 4 0.359203 0.751876 0.462343
100 1 0.373519 0.726751 0.476583
101 3 0.371327 0.723357 0.457734
102 4 0.370368 0.718463 0.482674
103 1 0.390438 0.723749 0.452219
104 3 0.403726 0.715591 0.459298
105 4 0.392013 0.732951 0.446787
106 1 0.410234 0.710501 0.439296
107 3 0.419275 0.723749 0.438638
108 4 0.411124 0.707564 0.427114
109 1 0.432769 0.716766 0.453619
110 3 0.435509 0.729035 0.465718
111 4 0.440373 0.719115 0.445799
112 1 0.419344 0.728774 0.476501
113 3 0.427769 0.73419 0.492305
114 4 0.409138 0.728186 0.479464
115 1 0.434619 0.718658 0.49856
116 3 0.450031 0.722443 0.50531
117 4 0.434756 0.709065 0.501853
118 1 0.45462 0.729557 0.484814
119 3 0.459141 0.743392 0.477653
120 4 0.457497 0.725772 0.473702
121 1 0.443797 0.752203 0.488518
122 3 0.437838 0.75279 0.50745
123 4 0.436674 0.752855 0.479217
124 1 0.438797 0.770933 0.508767
125 3 0.427632 0.769627 0.522101
126 4 0.440373 0.780722 0.507697
127 1 0.412289 0.767017 0.507697
128 3 0.405644 0.758924 0.522266
129 4 0.405096 0.766495 0.497573
130 1 0.416467 0.744828 0.522184
131 3 0.416056 0.744828 0.541938
132 4 0.421536 0.736997 0.516916
133 1 0.431742 0.755335 0.544655
134 3 0.423248 0.760164 0.560705
135 4 0.441674 0.759185 0.542185
136 1 0.415234 0.774914 0.548935
137 3 0.403178 0.77165 0.562681
138 4 0.412905 0.780983 0.539222
139 1 0.393863 0.76023 0.551569
140 3 0.389547 0.751681 0.565809
141 4 0.387835 0.757228 0.54128
142 1 0.405987 0.743392 0.568607
143 3 0.40448 0.744567 0.58721
144 4 0.414343 0.737127 0.565973
145 1 0.411398 0.762449 0.588033
146 3 0.400301 0.765777 0.602108
147 4 0.417494 0.770084 0.58581
148 1 0.385985 0.768387 0.588197
149 3 0.376738 0.761731 0.601779
150 4 0.378725 0.769497 0.578649
151 1 0.381875 0.744828 0.59684
152 3 0.380917 0.744763 0.616677
153 4 0.383177 0.736018 0.590667
154 1 0.400096 0.745611 0.619476
155 3 0.396192 0.751224 0.637419
156 4 0.410576 0.746133 0.616348
157 1 0.389479 0.7678 0.6296
158 3 0.377149 0.765516 0.643181
159 4 0.38941 0.776219 0.621945
160 1 0.364888 0.759512 0.628694
161 3 0.358723 0.753247 0.645486
162 4 0.359614 0.755792 0.618735
163 1 0.371053 0.739281 0.645321
164 3 0.370299 0.739085 0.664994
165 4 0.378588 0.73282 0.640547
166 1 0.384547 0.752268 0.666722
167 3 0.375848 0.75775 0.681373
168 4 0.393383 0.757032 0.665076
169 1 0.363381 0.76767 0.667792
170 3 0.351873 0.765059 0.682526
171 5 0.371121 0.726457 0.622069
172 1 0.349339 0.747765 0.678328
173 3 0.346736 0.745742 0.697918
174 4 0.348038 0.738824 0.672237
175 1 0.366669 0.744502 0.70154
176 3 0.366052 0.751681 0.719401
177 4 0.377012 0.742087 0.700634
178 1 0.368176 0.768583 0.709853
179 3 0.35749 0.774391 0.723599
180 4 0.370847 0.776023 0.702445
181 1 0.341667 0.768714 0.711664
182 3 0.337215 0.773413 0.729279
183 4 0.334954 0.765124 0.702692
184 1 0.335228 0.758598 0.739814
185 3 0.339064 0.763819 0.757594
186 4 0.333379 0.748678 0.739979
187 1 0.35797 0.765973 0.752737
188 3 0.356189 0.778568 0.763849
189 4 0.367696 0.764472 0.747799
190 1 0.353791 0.789728 0.745
191 3 0.345777 0.799843 0.756606
192 4 0.35338 0.794296 0.733394
193 1 0.329475 0.788488 0.755947
194 3 0.325981 0.793448 0.77455
195 4 0.322967 0.781179 0.75175
196 1 0.337763 0.780526 0.784427
197 3 0.34338 0.789532 0.798749
198 4 0.3429 0.771324 0.786979
199 1 0.35749 0.796058 0.78525
200 3 0.357627 0.81035 0.794058
201 4 0.365299 0.796384 0.776443
202 1 0.341941 0.816485 0.783686
203 3 0.335365 0.820662 0.800972
204 4 0.336119 0.81903 0.773974
205 1 0.323995 0.806957 0.803853
206 3 0.325707 0.810155 0.82336
207 4 0.317488 0.798995 0.802206
208 1 0.339955 0.798016 0.826982
209 3 0.354271 0.798277 0.817928
210 4 0.337831 0.788423 0.830439
211 1 0.364477 0.800365 0.838588
212 3 0.365504 0.784833 0.834225
213 5 0.354339 0.754497 0.784454
214 1 0.381259 0.782027 0.848054
215 3 0.372902 0.772042 0.860153
216 4 0.389821 0.783593 0.855791
217 1 0.374546 0.758468 0.843609
218 3 0.379067 0.745024 0.835048
219 4 0.364066 0.757162 0.84295
220 1 0.387698 0.753116 0.817434
221 3 0.38078 0.739999 0.808874
222 4 0.395918 0.758272 0.812166
223 1 0.371327 0.748548 0.792494
224 3 0.375642 0.736018 0.782616
225 4 0.367696 0.756379 0.78665
226 1 0.392972 0.740586 0.777266
227 3 0.40448 0.745089 0.789942
228 4 0.397904 0.745024 0.767059
229 1 0.410508 0.728774 0.795621
230 3 0.419549 0.731645 0.779406
231 4 0.410028 0.718789 0.797597
232 1 0.434071 0.740064 0.791506
233 3 0.440921 0.741957 0.773809
234 4 0.441674 0.740782 0.801301
235 1 0.447291 0.726163 0.77134
236 3 0.445441 0.72662 0.75175
237 4 0.451743 0.7167 0.772821
238 1 0.426057 0.724662 0.752161
239 3 0.426331 0.73543 0.738086
240 4 0.416056 0.721464 0.755701
241 1 0.424755 0.7492 0.752408
242 3 0.432906 0.75775 0.738662
243 4 0.425029 0.754944 0.763356
244 1 0.450373 0.750245 0.744506
245 3 0.453935 0.751942 0.725822
246 4 0.458182 0.745872 0.751503
247 1 0.444277 0.737715 0.718825
248 3 0.437907 0.744959 0.703515
249 4 0.442975 0.72773 0.71866
250 1 0.421604 0.750375 0.713969
251 3 0.423728 0.761927 0.701128
252 4 0.413864 0.750636 0.722364
253 1 0.433043 0.772956 0.713146
254 3 0.441058 0.77785 0.697095
255 4 0.436674 0.778111 0.723681
256 1 0.452839 0.763232 0.694955
257 3 0.452771 0.766886 0.675859
258 4 0.459141 0.755139 0.698247
259 1 0.435783 0.75899 0.671414
260 3 0.435578 0.770476 0.658079
261 4 0.427153 0.753834 0.673225
262 1 0.429687 0.783006 0.672649
263 3 0.438455 0.79286 0.661619
264 4 0.425235 0.786922 0.682608
265 1 0.454894 0.789858 0.673225
266 3 0.459895 0.79162 0.654375
267 4 0.462634 0.786987 0.681127
268 1 0.45873 0.774065 0.648614
269 3 0.457223 0.780265 0.631081
270 4 0.457086 0.76408 0.64812
271 1 0.437153 0.781766 0.63281
272 3 0.436879 0.794818 0.621039
273 4 0.42681 0.780461 0.63602
274 1 0.44325 0.805847 0.638325
275 3 0.45373 0.811721 0.624496
276 4 0.443455 0.810481 0.649848
277 1 0.468251 0.800822 0.630588
278 3 0.474896 0.802911 0.612397
279 4 0.474896 0.794492 0.635855
280 1 0.461059 0.790903 0.603343
281 3 0.458661 0.798734 0.586386
282 4 0.454483 0.783071 0.604824
283 1 0.446263 0.81035 0.59577
284 3 0.453387 0.821967 0.584822
285 4 0.438181 0.813614 0.603672
286 1 0.46558 0.826927 0.601038
287 3 0.477361 0.828167 0.586139
288 4 0.469005 0.83032 0.612644
289 1 0.484348 0.811721 0.587374
290 3 0.487499 0.810938 0.568031
291 4 0.487842 0.802715 0.59116
292 1 0.468594 0.810155 0.561035
293 3 0.471745 0.821053 0.547618
294 4 0.459073 0.805847 0.560788
295 1 0.467292 0.834954 0.560788
296 3 0.477978 0.842002 0.548853
297 4 0.462703 0.84148 0.569183
298 1 0.493184 0.836194 0.562763
299 3 0.50113 0.836586 0.545642
300 4 0.499075 0.832866 0.572805
301 1 0.495445 0.819422 0.539469
302 3 0.496472 0.824838 0.519879
303 4 0.491335 0.810546 0.540621
304 1 0.477704 0.83143 0.52062
305 3 0.483663 0.842981 0.509919
306 4 0.467635 0.831691 0.522019
307 1 0.487362 0.853553 0.52704
308 3 0.500582 0.86021 0.517739
309 4 0.487568 0.858513 0.537987
310 1 0.512295 0.847027 0.522678
311 3 0.519214 0.849507 0.504816
312 4 0.516268 0.839065 0.529016
313 1 0.505994 0.839131 0.492387
314 3 0.507706 0.849964 0.478559
315 4 0.499075 0.832148 0.489095
316 1 0.495239 0.861189 0.487366
317 3 0.505309 0.872283 0.48111
318 4 0.485924 0.864648 0.493292
319 1 0.516885 0.872871 0.498725
320 3 0.529146 0.875351 0.485144
321 4 0.520036 0.8715 0.510825
322 1 0.532639 0.857991 0.480863
323 3 0.535653 0.860797 0.462097
324 4 0.534626 0.848333 0.483744
325 1 0.517364 0.860863 0.455429
326 3 0.508117 0.870717 0.444482
327 4 0.510309 0.853749 0.453289
328 1 0.511405 0.884487 0.458557
329 3 0.504281 0.891209 0.443412
330 4 0.515104 0.890361 0.468023
331 1 0.520173 0.890361 0.42909
332 3 0.535174 0.884031 0.431394
333 4 0.519214 0.900346 0.426127
334 1 0.539421 0.883443 0.407524
335 3 0.550449 0.894211 0.411722
336 4 0.538119 0.876656 0.398141
337 1 0.536886 0.8963 0.38777
338 3 0.526543 0.903152 0.40061
339 4 0.540859 0.902695 0.380115
340 1 0.510377 0.898258 0.387687
341 3 0.51161 0.887555 0.401845
342 4 0.503733 0.895843 0.37781
343 1 0.497363 0.896495 0.415591
344 3 0.487705 0.885597 0.406783
345 4 0.49065 0.903739 0.419048
346 1 0.489006 0.874241 0.425386
347 3 0.491677 0.864648 0.409253
348 4 0.478389 0.873589 0.423822
349 1 0.506747 0.857404 0.417402
350 3 0.500993 0.845657 0.429501
351 4 0.516816 0.857273 0.421188
352 1 0.500856 0.833192 0.413204
353 3 0.515583 0.827775 0.409994
354 4 0.494828 0.830255 0.403079
355 1 0.515104 0.815898 0.42769
356 3 0.508459 0.804934 0.416002
357 4 0.512432 0.812243 0.439049
358 1 0.525652 0.796907 0.41164
359 3 0.52942 0.789858 0.428514
360 4 0.535516 0.797037 0.407113
361 1 0.518186 0.774979 0.42374
362 3 0.508802 0.777916 0.439708
363 4 0.526543 0.77165 0.430407
364 1 0.494623 0.767996 0.432876
365 3 0.492499 0.762122 0.451231
366 4 0.48654 0.764341 0.426044
367 1 0.506953 0.750375 0.448844
368 3 0.507706 0.753377 0.46827
369 4 0.513871 0.743849 0.444482
370 1 0.520652 0.767147 0.465965
371 3 0.515994 0.773413 0.483333
372 4 0.527433 0.774 0.462097
373 1 0.497705 0.777198 0.475184
374 3 0.490034 0.774065 0.491811
375 4 0.490582 0.7802 0.465801
376 1 0.489623 0.756249 0.486872
377 3 0.494075 0.752529 0.505228
378 4 0.486198 0.748352 0.480534
379 1 0.512501 0.753508 0.500371
380 3 0.514693 0.759642 0.51848
381 4 0.522091 0.752007 0.494939
382 1 0.507569 0.776154 0.513212
383 3 0.501747 0.777067 0.532473
384 4 0.505857 0.785355 0.508438
385 1 0.486061 0.768453 0.528028
386 3 0.485718 0.760752 0.545066
387 4 0.476745 0.767213 0.522101
388 1 0.496746 0.747112 0.536506
389 3 0.504487 0.747504 0.554697
390 4 0.500993 0.741239 0.527699
391 1 0.515926 0.760882 0.549017
392 3 0.513391 0.764798 0.567455
393 4 0.521885 0.766691 0.541445
394 1 0.498733 0.775436 0.563504
395 3 0.494828 0.771063 0.582435
396 4 0.491952 0.78144 0.558236
397 1 0.486335 0.755792 0.577003
398 3 0.493116 0.750636 0.594124
399 4 0.481266 0.748222 0.570583
400 1 0.509624 0.745546 0.586139
401 3 0.516268 0.750114 0.603507
402 4 0.518186 0.742413 0.579308
403 1 0.517296 0.767408 0.599639
404 3 0.512227 0.769627 0.617829
405 4 0.521474 0.776088 0.595194
406 1 0.493253 0.771389 0.611656
407 3 0.491198 0.768909 0.631493
408 4 0.484417 0.772629 0.605236
409 1 0.493869 0.75044 0.630588
410 3 0.502569 0.750636 0.647626
411 4 0.493047 0.740912 0.62606
412 1 0.519419 0.754356 0.63709
413 3 0.524625 0.762449 0.653058
414 5 0.510514 0.70102 0.594801
415 1 0.517501 0.778764 0.644416
416 3 0.511199 0.783985 0.661454
417 4 0.516885 0.785029 0.63495
418 1 0.494212 0.776871 0.659396
419 3 0.494486 0.776349 0.678493
420 4 0.485102 0.772434 0.654705
421 1 0.500719 0.758272 0.679233
422 3 0.503117 0.759903 0.698577
423 4 0.503596 0.749266 0.6752
424 1 0.51757 0.771128 0.69726
425 3 0.512432 0.77909 0.712487
426 4 0.526611 0.775175 0.692815
427 1 0.500788 0.789532 0.70154
428 3 0.496678 0.791425 0.719648
429 4 0.496472 0.794427 0.691745
430 1 0.485033 0.778699 0.722364
431 3 0.489691 0.77661 0.741049
432 4 0.477772 0.771716 0.719401
433 1 0.505172 0.766756 0.737839
434 3 0.510651 0.772107 0.75463
435 4 0.512843 0.76147 0.732077
436 1 0.516542 0.787966 0.746729
437 3 0.510035 0.800039 0.755371
438 4 0.52483 0.79162 0.741708
439 1 0.494143 0.8003 0.745082
440 3 0.483458 0.804477 0.75924
441 5 0.500856 0.755793 0.691506
442 1 0.479964 0.787052 0.766154
443 3 0.479416 0.78653 0.785744
444 4 0.475786 0.778111 0.764096
445 1 0.497705 0.791555 0.787967
446 3 0.491061 0.805586 0.791835
447 4 0.508117 0.793056 0.785662
448 1 0.490787 0.802845 0.814882
449 3 0.502295 0.797037 0.827887
450 4 0.481882 0.798408 0.818504
451 1 0.503596 0.813809 0.839411
452 3 0.502774 0.809828 0.858672
453 4 0.505309 0.823599 0.839246
454 1 0.484006 0.807218 0.859906
455 3 0.487705 0.812765 0.877439
456 4 0.486266 0.798603 0.866244
457 1 0.480581 0.829537 0.872418
458 3 0.466059 0.83515 0.879414
459 4 0.486609 0.837564 0.868714
460 1 0.456538 0.833518 0.859824
461 3 0.453867 0.821249 0.847642
462 4 0.456675 0.840371 0.850688
463 1 0.438386 0.814658 0.858589
464 3 0.429276 0.822163 0.84509
465 4 0.432153 0.811199 0.868138
466 1 0.426262 0.807348 0.832744
467 3 0.419755 0.793644 0.838752
468 4 0.430714 0.805325 0.821632
469 1 0.401877 0.799321 0.835295
470 3 0.393657 0.787639 0.827147
471 4 0.393657 0.805456 0.838423
472 1 0.400507 0.792338 0.80517
473 3 0.411535 0.781635 0.808791
474 5 0.402288 0.741908 0.74297
475 1 0.408316 0.77152 0.791094
476 3 0.423454 0.767017 0.786403
477 4 0.402973 0.765907 0.782534
478 1 0.428523 0.78281 0.777431
479 3 0.420714 0.794427 0.767389
480 4 0.433797 0.77772 0.768623
481 1 0.434824 0.80761 0.772245
482 3 0.432153 0.813548 0.754466
483 4 0.440167 0.812374 0.780888
484 1 0.450442 0.810873 0.746235
485 3 0.455853 0.825491 0.741461
486 4 0.457018 0.803955 0.742201
487 1 0.465169 0.827579 0.762615
488 3 0.451949 0.837173 0.759898
489 4 0.474896 0.827253 0.75817
490 1 0.462634 0.852509 0.759981
491 3 0.47743 0.853684 0.751996
492 4 0.463045 0.854337 0.772574
493 1 0.473046 0.868955 0.739732
494 3 0.481334 0.8777 0.753067
495 4 0.467429 0.875481 0.732406
496 1 0.498048 0.875612 0.743107
497 3 0.508185 0.885075 0.734135
498 4 0.504213 0.868107 0.74821
499 1 0.50798 0.875612 0.713393
500 3 0.505925 0.878353 0.694461
501 4 0.512775 0.867389 0.709771
502 1 0.487157 0.884226 0.697918
503 3 0.489006 0.892449 0.681209
504 4 0.477498 0.885597 0.702857
505 1 0.497637 0.905958 0.691827
506 3 0.505309 0.90759 0.67413
507 4 0.498664 0.913529 0.700552
508 1 0.522159 0.902304 0.683431
509 3 0.525926 0.896104 0.665899
510 4 0.529968 0.901847 0.691086
511 1 0.515104 0.880963 0.66878
512 3 0.510035 0.885858 0.650918
513 5 0.515926 0.815404 0.62241
514 1 0.490993 0.88005 0.655692
515 3 0.488869 0.889317 0.639724
516 4 0.482088 0.878483 0.662277
517 1 0.489623 0.905045 0.651906
518 3 0.497911 0.910005 0.635608
519 4 0.48428 0.911506 0.66022
520 1 0.514213 0.915682 0.647873
521 3 0.520652 0.913463 0.630423
522 4 0.520104 0.918228 0.657421
523 1 0.5262 0.896234 0.635938
524 3 0.525858 0.887163 0.620792
525 4 0.532571 0.890165 0.642358
526 1 0.506816 0.885271 0.618735
527 3 0.50024 0.890361 0.602026
528 4 0.504144 0.876917 0.624579
529 1 0.48517 0.897801 0.612891
530 3 0.484828 0.907786 0.598239
531 4 0.478115 0.899563 0.622109
532 1 0.497979 0.919467 0.605318
533 3 0.50161 0.921034 0.586386
534 4 0.502569 0.925863 0.613055
535 1 0.513734 0.90759 0.583588
536 3 0.506405 0.905436 0.566714
537 4 0.521269 0.90126 0.58721
538 1 0.491404 0.894799 0.574451
539 3 0.482225 0.901782 0.559965
540 4 0.485855 0.888403 0.581365
541 1 0.479759 0.916857 0.570665
542 3 0.481677 0.922404 0.55231
543 4 0.479074 0.924101 0.579472
544 1 0.500651 0.923579 0.55338
545 3 0.499966 0.920838 0.533954
546 4 0.511062 0.925472 0.557577
547 1 0.498322 0.90263 0.536259
548 3 0.488732 0.903544 0.521196
549 4 0.50024 0.893167 0.540951
550 1 0.472361 0.904718 0.533872
551 3 0.464621 0.912158 0.519961
552 4 0.465648 0.902238 0.542515
553 1 0.473046 0.928539 0.524077
554 3 0.476334 0.931541 0.505145
555 4 0.474211 0.936762 0.531073
556 1 0.493184 0.924493 0.50424
557 3 0.488321 0.920316 0.486543
558 4 0.502843 0.921295 0.505639
559 1 0.477772 0.905828 0.49321
560 3 0.468868 0.911114 0.478641
561 4 0.474074 0.898192 0.500454
562 1 0.457771 0.921817 0.490659
563 3 0.455853 0.929714 0.47469
564 4 0.451195 0.925863 0.499466
565 1 0.472567 0.939437 0.476666
566 3 0.473937 0.93872 0.457158
567 4 0.479964 0.944985 0.482098
568 1 0.480786 0.921556 0.457322
569 3 0.472841 0.918358 0.441189
570 4 0.487157 0.914181 0.46078
571 1 0.456333 0.913594 0.451314
572 3 0.449209 0.921164 0.436004
573 4 0.449551 0.909352 0.459627
574 1 0.448935 0.937675 0.446869
575 3 0.450236 0.942309 0.428184
576 4 0.450373 0.943679 0.457405
577 1 0.469895 0.940547 0.428678
578 3 0.46647 0.936305 0.4095
579 4 0.47969 0.939503 0.432794
580 1 0.464826 0.91875 0.414438
581 3 0.45599 0.917836 0.3974
582 4 0.464895 0.909613 0.420365
583 1 0.44051 0.925537 0.406454
584 3 0.438455 0.931476 0.388181
585 4 0.432975 0.927038 0.415426
586 1 0.449072 0.946029 0.392297
587 3 0.455922 0.947791 0.3746
588 4 0.451401 0.954774 0.397318
589 1 0.46969 0.935783 0.377975
590 3 0.459552 0.924819 0.371307
591 4 0.477704 0.931541 0.384889
592 1 0.467566 0.922535 0.3518
593 3 0.480033 0.913268 0.349906
594 4 0.470101 0.926516 0.340029
595 1 0.47106 0.898649 0.356821
596 3 0.482225 0.891666 0.345709
597 4 0.464689 0.892319 0.362829
598 1 0.470717 0.889774 0.327847
599 3 0.477361 0.892058 0.310315
600 4 0.461949 0.885988 0.321756
601 1 0.483869 0.908569 0.314842
602 3 0.496952 0.900215 0.319863
603 4 0.484554 0.917966 0.31904
604 1 0.506199 0.900998 0.29945
605 3 0.515994 0.910396 0.309245
606 4 0.508117 0.902761 0.287185
607 1 0.529009 0.896952 0.315089
608 3 0.520789 0.9025 0.331304
609 4 0.536407 0.90139 0.308257
610 1 0.536818 0.905306 0.343239
611 3 0.531817 0.920446 0.337889
612 4 0.547024 0.903935 0.346696
613 1 0.528187 0.926385 0.358467
614 3 0.542777 0.932911 0.356574
615 4 0.526406 0.927103 0.37106
616 1 0.534283 0.949683 0.348425
617 3 0.529625 0.943745 0.331469
618 5 0.530447 0.895351 0.327307
619 1 0.531132 0.960191 0.320027
620 3 0.541613 0.950401 0.310315
621 4 0.532845 0.96998 0.31797
622 1 0.529625 0.94629 0.292782
623 3 0.532228 0.949031 0.27311
624 4 0.522365 0.939372 0.291219
625 1 0.536201 0.966717 0.275662
626 3 0.544078 0.965934 0.258459
627 4 0.539695 0.97507 0.281753
628 1 0.559422 0.959407 0.265702
629 3 0.563943 0.95014 0.250721
630 4 0.567436 0.959407 0.274262
631 1 0.553326 0.935979 0.256977
632 3 0.545722 0.939372 0.239856
633 4 0.548051 0.929126 0.264467
634 1 0.551065 0.923709 0.22965
635 3 0.534694 0.923579 0.233683
636 4 0.556819 0.915291 0.226933
637 1 0.528324 0.916988 0.21541
638 3 0.530516 0.900998 0.216645
639 4 0.526474 0.917966 0.202487
640 1 0.513939 0.899302 0.228333
641 3 0.497842 0.896952 0.231378
642 4 0.514967 0.899432 0.241091
643 1 0.493321 0.900085 0.20866
644 3 0.492226 0.914508 0.215821
645 4 0.48702 0.891601 0.20973
646 1 0.472567 0.914899 0.213517
647 3 0.476197 0.929909 0.218785
648 4 0.469279 0.914051 0.226028
649 1 0.479074 0.936305 0.198372
650 3 0.474142 0.950336 0.204709
651 4 0.48154 0.937219 0.186354
652 1 0.458182 0.935065 0.192939
653 3 0.455579 0.926973 0.209401
654 4 0.449277 0.940155 0.188741
655 1 0.445167 0.91379 0.198618
656 3 0.456881 0.905958 0.188741
657 4 0.434687 0.91379 0.194421
658 1 0.453524 0.889643 0.198289
659 3 0.451949 0.889512 0.17837
660 4 0.448387 0.882073 0.202899
661 1 0.467703 0.88005 0.174995
662 3 0.457497 0.868107 0.172114
663 4 0.477567 0.876264 0.176806
664 1 0.460032 0.868107 0.149479
665 3 0.474758 0.861907 0.14668
666 4 0.458593 0.871761 0.137708
667 1 0.468799 0.845396 0.14347
668 3 0.478526 0.844025 0.127584
669 4 0.4651 0.836194 0.145528
670 1 0.467224 0.849834 0.112768
671 3 0.470649 0.865431 0.112192
672 4 0.458319 0.849964 0.105113
673 1 0.487979 0.861907 0.104372
674 3 0.484143 0.861646 0.0844528
675 4 0.4975 0.85773 0.105607
676 1 0.489212 0.878353 0.0817366
677 3 0.504418 0.873589 0.0809135
678 4 0.488458 0.888534 0.083959
679 1 0.505377 0.875873 0.0572078
680 3 0.506199 0.891797 0.0558909
681 4 0.502432 0.870195 0.0472482
682 1 0.523872 0.891014 0.0446965
683 3 0.514282 0.897605 0.0306213
684 4 0.532502 0.886902 0.0385232
685 1 0.516337 0.914051 0.0363008
686 3 0.531954 0.917575 0.0324322
687 4 0.511473 0.919533 0.0452727
688 1 0.527365 0.929126 0.0166284
689 3 0.529214 0.940025 0.0309506
690 4 0.522502 0.932977 0.00642184
691 1 0.544695 0.947204 0.0216494
692 3 0.536886 0.953925 0.00642184
693 4 0.555244 0.946877 0.0198386
694 1 0.543599 0.965542 0.0308683
695 3 0.529557 0.960713 0.040581
696 4 0.544832 0.975005 0.0325968
697 1 0.539421 0.95634 0.0600064
698 3 0.54127 0.969784 0.0693076
699 4 0.545996 0.949292 0.0644512
700 1 0.527091 0.967761 0.0842882
701 3 0.539695 0.967043 0.0970464
702 4 0.518597 0.96378 0.0901323
703 1 0.537777 0.98499 0.102561
704 3 0.530036 0.979051 0.118447
705 4 0.535037 0.994714 0.101574
706 1 0.544284 0.974026 0.130629
707 3 0.536407 0.985186 0.14026
708 4 0.554559 0.972525 0.134416
709 1 0.528461 0.974744 0.155652
710 3 0.537571 0.965542 0.167916
711 5 0.534489 0.916613 0.144247
712 1 0.529625 0.971742 0.187753
713 3 0.516337 0.963649 0.189482
714 4 0.527844 0.977942 0.197384
715 1 0.52394 0.947269 0.19121
716 3 0.51894 0.935718 0.203557
717 4 0.528529 0.939764 0.184296
718 1 0.518734 0.946486 0.22183
719 3 0.507843 0.935522 0.227839
720 4 0.519556 0.954317 0.229814
721 1 0.492362 0.944919 0.222406
722 3 0.494965 0.947138 0.241996
723 5 0.501541 0.882189 0.201905
724 1 0.478457 0.938459 0.247511
725 3 0.488116 0.925798 0.249569
726 4 0.467635 0.936174 0.248828
727 1 0.488732 0.925798 0.271793
728 3 0.48428 0.9164 0.286774
729 4 0.496746 0.929452 0.278872
730 1 0.466265 0.918684 0.283811
731 3 0.456607 0.925145 0.270147
732 4 0.464415 0.919924 0.295993
733 1 0.442017 0.913398 0.273769
734 3 0.437564 0.923448 0.288585
735 4 0.436057 0.905306 0.277555
736 1 0.426879 0.933433 0.275497
737 3 0.414891 0.923971 0.281588
738 4 0.425646 0.940221 0.26669
739 1 0.410097 0.934543 0.30052
740 3 0.404754 0.948966 0.298873
741 4 0.414686 0.934673 0.311961
742 1 0.386328 0.944658 0.302742
743 3 0.380848 0.93513 0.317393
744 4 0.379752 0.945115 0.292453
745 1 0.36982 0.947595 0.326365
746 3 0.372423 0.938263 0.342005
747 4 0.361874 0.941265 0.323649
748 1 0.385917 0.948966 0.3518
749 3 0.375437 0.952686 0.366286
750 4 0.393109 0.955753 0.353281
751 1 0.37804 0.936566 0.377316
752 3 0.390575 0.941591 0.388922
753 4 0.376601 0.926581 0.37674
754 1 0.380026 0.944985 0.406701
755 3 0.37941 0.939046 0.425139
756 4 0.375642 0.953991 0.409582
757 1 0.372971 0.923057 0.418389
758 3 0.378177 0.918554 0.436909
759 4 0.368724 0.915225 0.411557
760 1 0.395781 0.915878 0.429995
761 3 0.399479 0.92012 0.449421
762 4 0.404274 0.912746 0.423822
763 1 0.399137 0.937806 0.444317
764 3 0.393452 0.939503 0.462673
765 4 0.399822 0.946225 0.437156
766 1 0.375916 0.936827 0.456746
767 3 0.374341 0.930888 0.47469
768 4 0.367148 0.936631 0.449668
769 1 0.381944 0.914703 0.46827
770 3 0.388314 0.915225 0.486461
771 4 0.38304 0.906676 0.461603
772 1 0.40585 0.921686 0.478394
773 3 0.408932 0.92893 0.495762
774 4 0.413932 0.924754 0.470739
775 1 0.396877 0.943157 0.491893
776 3 0.394342 0.943223 0.512059
777 5 0.399205 0.890548 0.458002
778 1 0.379752 0.931149 0.510742
779 3 0.38393 0.923057 0.526793
780 4 0.370025 0.92893 0.507532
781 1 0.396055 0.911962 0.516751
782 3 0.404754 0.913463 0.533213
783 4 0.401329 0.905763 0.508932
784 1 0.41085 0.93004 0.526628
785 3 0.410371 0.934543 0.545478
786 4 0.415302 0.936762 0.518315
787 1 0.392698 0.940808 0.544572
788 3 0.392972 0.935587 0.563257
789 4 0.383314 0.943745 0.540292
790 1 0.389068 0.917575 0.558483
791 3 0.398726 0.914638 0.573546
792 4 0.383862 0.910266 0.552474
793 1 0.415302 0.914834 0.562269
794 3 0.418864 0.920381 0.580378
795 4 0.42318 0.915617 0.552886
796 1 0.415987 0.937675 0.575274
797 3 0.412905 0.938524 0.5947
798 4 0.414138 0.946486 0.569595
799 1 0.394274 0.933433 0.592642
800 3 0.398726 0.928147 0.610421
801 4 0.384752 0.931998 0.58795
802 1 0.405096 0.912158 0.604083
803 3 0.416672 0.909809 0.617829
804 4 0.406192 0.903739 0.597416
805 1 0.428317 0.921164 0.606882
806 3 0.435989 0.927038 0.622768
807 4 0.43318 0.924623 0.596428
808 1 0.4227 0.941004 0.623673
809 3 0.427564 0.942701 0.643346
810 4 0.415165 0.948052 0.622686
811 1 0.415782 0.931606 0.653388
812 3 0.427495 0.930953 0.667957
813 4 0.407425 0.925733 0.654869
814 1 0.437907 0.918358 0.656762
815 3 0.451058 0.926255 0.662607
816 4 0.440578 0.910788 0.649354
817 1 0.451264 0.937153 0.645239
818 3 0.45784 0.946159 0.660631
819 4 0.449209 0.941069 0.633468
820 1 0.440715 0.954056 0.665241
821 3 0.447359 0.955753 0.683267
822 4 0.43092 0.958167 0.665076
823 1 0.442154 0.940286 0.690757
824 3 0.455442 0.942178 0.702527
825 4 0.438318 0.931606 0.693802
826 1 0.467703 0.936435 0.686971
827 3 0.478731 0.947334 0.69265
828 4 0.472293 0.929452 0.679727
829 1 0.471882 0.961169 0.680468
830 3 0.474553 0.970437 0.69693
831 4 0.467498 0.966064 0.669768
832 1 0.458456 0.967239 0.707713
833 3 0.465443 0.967369 0.726068
834 4 0.448592 0.96502 0.710265
835 1 0.474896 0.951511 0.722941
836 3 0.48791 0.954317 0.734135
837 4 0.474758 0.941917 0.718743
838 1 0.498664 0.961431 0.71792
839 3 0.506816 0.974026 0.724998
840 4 0.504076 0.960517 0.706561
841 1 0.490993 0.984207 0.724258
842 3 0.485239 0.977942 0.74072
843 4 0.484417 0.989232 0.716932
844 1 0.484211 0.994975 0.75142
845 3 0.488664 0.983619 0.764014
846 4 0.473252 0.994779 0.752326
847 1 0.499623 0.992625 0.777348
848 3 0.495856 0.981531 0.7906
849 4 0.505583 0.999739 0.783028
850 1 0.478937 0.990015 0.796444
851 3 0.462497 0.987144 0.794058
852 4 0.475444 0.998238 0.803112
853 1 0.466333 0.977811 0.77348
854 3 0.453524 0.987535 0.774056
855 4 0.463662 0.968609 0.778665
856 1 0.445647 0.982249 0.755289
857 3 0.437975 0.970893 0.764672
858 4 0.444414 0.980356 0.742942
859 1 0.421467 0.979769 0.766319
860 3 0.416604 0.96998 0.751914
861 4 0.413795 0.986491 0.766483
862 1 0.413316 0.955688 0.768623
863 3 0.400644 0.947726 0.759981
864 4 0.41448 0.950793 0.779735
865 1 0.388246 0.961431 0.761709
866 3 0.383177 0.955622 0.744342
867 4 0.383519 0.969719 0.764755
868 1 0.395507 0.966129 0.731583
869 3 0.399137 0.955426 0.717426
870 4 0.399753 0.975201 0.728538
871 1 0.410645 0.945833 0.731419
872 3 0.40311 0.933042 0.725245
873 4 0.418248 0.944006 0.739403
874 1 0.388657 0.934347 0.739403
875 3 0.378451 0.928996 0.725575
876 5 0.397014 0.867649 0.69596
877 1 0.376053 0.945441 0.715944
878 3 0.37482 0.937023 0.699647
879 4 0.376601 0.955557 0.713722
880 1 0.394685 0.937871 0.696519
881 3 0.395781 0.923057 0.689687
882 4 0.405165 0.940743 0.696107
883 1 0.394068 0.91516 0.709771
884 3 0.386465 0.903739 0.698823
885 4 0.394822 0.913202 0.721871
886 1 0.368998 0.911962 0.702116
887 3 0.367628 0.905371 0.683843
888 4 0.361189 0.918489 0.705326
889 1 0.373519 0.920185 0.672813
890 3 0.378245 0.908569 0.659643
891 4 0.376533 0.929191 0.667874
892 1 0.395027 0.905436 0.670344
893 3 0.39215 0.891209 0.661537
894 4 0.403178 0.906415 0.678904
895 1 0.379821 0.884683 0.67841
896 3 0.372971 0.876852 0.663924
897 4 0.375711 0.883182 0.689687
898 1 0.361258 0.890165 0.658326
899 3 0.363244 0.884487 0.639971
900 4 0.354408 0.898062 0.65882
901 1 0.378451 0.894146 0.635691
902 3 0.38393 0.881159 0.625731
903 4 0.38578 0.901521 0.635115
904 1 0.389068 0.871696 0.644663
905 3 0.385711 0.85897 0.635197
906 5 0.386054 0.81016 0.605352
907 1 0.366532 0.861059 0.63816
908 3 0.364203 0.855381 0.619476
909 4 0.357285 0.862886 0.64491
910 1 0.364751 0.872806 0.609845
911 3 0.371943 0.86517 0.5947
912 4 0.362285 0.882986 0.608363
913 1 0.389273 0.867911 0.601696
914 3 0.391876 0.854924 0.592477
915 4 0.398109 0.871892 0.60647
916 1 0.38941 0.843634 0.609598